formula,material_id,band_gap,efermi,energy_above_hull,database_IDs,comp_atoms,sorted_keys_comp_atoms,comp_number,new_formula
Dy(AlGe)2,mp-1206601,0.0,5.13107282,0.0,pf-25835,"{66: 1, 13: 2, 32: 2}","[13, 32, 66]",132322661,Dy1Al2Ge2
Ho(AlGe)2,mp-1207012,0.0,5.10042389,0.0,pf-36305,"{67: 1, 13: 2, 32: 2}","[13, 32, 67]",132322671,Ho1Al2Ge2
Er(AlGe)2,mp-13069,0.0,6.06137325,0.0,icsd-160311,"{68: 1, 13: 2, 32: 2}","[13, 32, 68]",132322681,Er1Al2Ge2
Tm(AlGe)2,mp-1206602,0.0,5.12660144,0.0,pf-24432,"{69: 1, 13: 2, 32: 2}","[13, 32, 69]",132322691,Tm1Al2Ge2
Sr3(AlGe2)2,mp-571216,0.0,4.62565478,0.0,icsd-417968,"{38: 3, 13: 2, 32: 4}","[13, 32, 38]",132324383,Sr3Al2Ge4
Ba5Al2Ge7,mp-570390,0.0,3.15786477,0.0,icsd-417659,"{56: 5, 13: 2, 32: 7}","[13, 32, 56]",132327565,Ba5Al2Ge7
Er11(AlGe4)2,mp-1198518,0.0,3.86178172,0.0,icsd-184498,"{68: 11, 13: 2, 32: 8}","[13, 32, 68]",1323286811,Er11Al2Ge8
Sr3(AlAs2)2,mp-1189305,1.1456000000000004,3.44392026,0.0,icsd-423787,"{38: 3, 13: 2, 33: 4}","[13, 33, 38]",132334383,Sr3Al2As4
Ba3(AlAs2)2,mp-1202519,1.0680000000000005,3.08447536,0.0,icsd-423779,"{56: 3, 13: 2, 33: 4}","[13, 33, 56]",132334563,Ba3Al2As4
Eu3(AlAs2)2,mp-1189098,0.00590000000000046,4.28346221,0.0,icsd-423786,"{63: 3, 13: 2, 33: 4}","[13, 33, 63]",132334633,Eu3Al2As4
Al2Se3,mp-11674,1.8004000000000002,2.75585637,0.0,icsd-14373,"{13: 2, 34: 3}","[13, 34]",132343,Al2Se3
Sr(AlSe2)2,mp-8422,2.766,1.95600269,0.0,icsd-609319,"{38: 1, 13: 2, 34: 4}","[13, 34, 38]",132344381,Sr1Al2Se4
Al2CdSe4,mp-3159,2.0046999999999997,1.50165954,0.0,icsd-25637,"{13: 2, 48: 1, 34: 4}","[13, 34, 48]",132344481,Al2Cd1Se4
Eu(AlSe2)2,mp-1103552,1.0021999999999998,4.01027324,0.0,icsd-607466,"{63: 1, 13: 2, 34: 4}","[13, 34, 63]",132344631,Eu1Al2Se4
Al2HgSe4,mp-3038,1.4253999999999998,1.64730415,0.0,icsd-183396,"{13: 2, 80: 1, 34: 4}","[13, 34, 80]",132344801,Al2Hg1Se4
Al2BiSe4,mp-571623,2.2404,2.09197666,0.0,icsd-408440,"{13: 2, 83: 1, 34: 4}","[13, 34, 83]",132344831,Al2Bi1Se4
Al2Sb5(Se2Br3)3,mp-1196459,1.81,0.8153559,0.0,icsd-426653,"{13: 2, 51: 5, 34: 6, 35: 9}","[13, 34, 35, 51]",132346359515,Al2Sb5Se6Br9
Al2CdBr8,mp-1214910,2.9128,1.5856877,0.0,pf-10625,"{13: 2, 48: 1, 35: 8}","[13, 35, 48]",132358481,Al2Cd1Br8
SrAl2,mp-22318,0.0,4.62923428,0.0,icsd-609422,"{38: 1, 13: 2}","[13, 38]",132381,Sr1Al2
Sr(AlAu)2,mp-1079278,0.0,4.80678316,0.0,icsd-658124,"{38: 1, 13: 2, 79: 2}","[13, 38, 79]",132381792,Sr1Al2Au2
SrAl2Au3,mp-1190136,0.0,5.0301974,0.0,icsd-429904,"{38: 1, 13: 2, 79: 3}","[13, 38, 79]",132381793,Sr1Al2Au3
Sr3(AlSn)2,mp-7376,0.0,4.02105703,0.0,icsd-9564,"{38: 3, 13: 2, 50: 2}","[13, 38, 50]",132383502,Sr3Al2Sn2
Sr5(AlSb3)2,mp-28392,0.7905999999999995,4.23045819,0.0,icsd-62304,"{38: 5, 13: 2, 51: 6}","[13, 38, 51]",132385516,Sr5Al2Sb6
YAl2,mp-2322,0.0,5.88468752,0.0,icsd-609628,"{39: 1, 13: 2}","[13, 39]",132391,Y1Al2
YAl2Pd5,mp-1078938,0.0,5.9705112,0.0,icsd-182836,"{39: 1, 13: 2, 46: 5}","[13, 39, 46]",132391465,Y1Al2Pd5
ZrAl2,mp-2772,0.0,6.79490826,0.0,icsd-150527,"{40: 1, 13: 2}","[13, 40]",132401,Zr1Al2
Al2Ru,mp-10910,0.08639999999999937,9.0433687,0.0,icsd-609228,"{13: 2, 44: 1}","[13, 44]",132441,Al2Ru1
La5Al2Ru3,mp-1185199,0.00590000000000046,8.17971071,0.0,icsd-167948,"{57: 5, 13: 2, 44: 3}","[13, 44, 57]",132443575,La5Al2Ru3
Pr5Al2Ru3,mp-861986,0.0,4.77629321,0.0,icsd-167950,"{59: 5, 13: 2, 44: 3}","[13, 44, 59]",132443595,Pr5Al2Ru3
Tb4(Al8Pd3)3,mp-1208456,0.0,6.63702035,0.0,pf-38400,"{65: 4, 13: 24, 46: 9}","[13, 46, 65]",1324469654,Tb4Al24Pd9
Dy4(Al8Pd3)3,mp-1212879,0.0,6.65353805,0.0,pf-6992,"{66: 4, 13: 24, 46: 9}","[13, 46, 66]",1324469664,Dy4Al24Pd9
Ho4(Al8Pd3)3,mp-1212310,0.0,6.62080701,0.0,pf-17456,"{67: 4, 13: 24, 46: 9}","[13, 46, 67]",1324469674,Ho4Al24Pd9
Er4(Al8Pd3)3,mp-1212881,0.0,6.65260074,0.0,pf-28024,"{68: 4, 13: 24, 46: 9}","[13, 46, 68]",1324469684,Er4Al24Pd9
Tm4(Al8Pd3)3,mp-1208006,0.0,6.57100228,0.0,pf-5627,"{69: 4, 13: 24, 46: 9}","[13, 46, 69]",1324469694,Tm4Al24Pd9
La(AlPd)2,mp-1079764,0.0,6.95337157,0.0,icsd-191054,"{57: 1, 13: 2, 46: 2}","[13, 46, 57]",132462571,La1Al2Pd2
Tb4(Al8Pt3)3,mp-1208449,0.0,7.21604734,0.0,pf-37142,"{65: 4, 13: 24, 78: 9}","[13, 65, 78]",1324654789,Tb4Al24Pt9
CeAl2Pd5,mp-1025445,0.0,6.99548573,0.0,pf-5222,"{58: 1, 13: 2, 46: 5}","[13, 46, 58]",132465581,Ce1Al2Pd5
LuAl2Pd5,mp-1025564,0.0,6.11203818,0.0,pf-15686,"{71: 1, 13: 2, 46: 5}","[13, 46, 71]",132465711,Lu1Al2Pd5
Dy4(Al8Pt3)3,mp-1212875,0.0,7.26676949,0.0,pf-5708,"{66: 4, 13: 24, 78: 9}","[13, 66, 78]",1324664789,Dy4Al24Pt9
Ho4(Al8Pt3)3,mp-1212326,0.0,7.18738725,0.0,pf-16165,"{67: 4, 13: 24, 78: 9}","[13, 67, 78]",1324674789,Ho4Al24Pt9
Er4(Al8Pt3)3,mp-31475,0.0,7.38865318,0.0,icsd-107488,"{68: 4, 13: 24, 78: 9}","[13, 68, 78]",1324684789,Er4Al24Pt9
Tm4(Al8Pt3)3,mp-1207999,0.0,7.25254243,0.0,pf-37221,"{69: 4, 13: 24, 78: 9}","[13, 69, 78]",1324694789,Tm4Al24Pt9
Lu4(Al8Pt3)3,mp-1210587,0.0,7.23057762,0.0,pf-16243,"{71: 4, 13: 24, 78: 9}","[13, 71, 78]",1324714789,Lu4Al24Pt9
PrAl2Ag,mp-1101762,0.0,5.19555309,0.0,icsd-604688,"{59: 1, 13: 2, 47: 1}","[13, 47, 59]",132471591,Pr1Al2Ag1
Al2CdTe4,mp-7909,1.6245000000000003,3.050266,0.0,icsd-25640,"{13: 2, 48: 1, 52: 4}","[13, 48, 52]",132481524,Al2Cd1Te4
Ba3(AlSn)2,mp-7377,0.0,3.6038069,0.0,icsd-9565,"{56: 3, 13: 2, 50: 2}","[13, 50, 56]",132502563,Ba3Al2Sn2
Al2Te3,mp-29502,1.7992000000000004,2.9594855,0.0,icsd-406353,"{13: 2, 52: 3}","[13, 52]",132523,Al2Te3
Ba(AlTe2)2,mp-28505,1.5444,3.09254507,0.0,icsd-41165,"{56: 1, 13: 2, 52: 4}","[13, 52, 56]",132524561,Ba1Al2Te4
Al2HgTe4,mp-7910,1.1108000000000002,3.22883458,0.0,icsd-25641,"{13: 2, 80: 1, 52: 4}","[13, 52, 80]",132524801,Al2Hg1Te4
Al2Te5,mp-9254,1.0734000000000004,3.75090219,0.0,icsd-78941,"{13: 2, 52: 5}","[13, 52]",132525,Al2Te5
La2Al2I,mp-29986,0.0,7.50558494,0.0,icsd-411690,"{57: 2, 13: 2, 53: 1}","[13, 53, 57]",132531572,La2Al2I1
LaAl2,mp-2694,0.0,8.2020018,0.0,icsd-608286,"{57: 1, 13: 2}","[13, 57]",132571,La1Al2
CeAl2,mp-2088,0.0,7.93485577,0.0,icsd-657257,"{58: 1, 13: 2}","[13, 58]",132581,Ce1Al2
Ce(AlAu)2,mp-1078886,0.0,6.46814802,0.0,icsd-658114,"{58: 1, 13: 2, 79: 2}","[13, 58, 79]",132581792,Ce1Al2Au2
PrAl2,mp-1189,0.0,5.84136112,0.0,icsd-609085,"{59: 1, 13: 2}","[13, 59]",132591,Pr1Al2
Pr(AlAu)2,mp-1091396,0.0,5.38502676,0.0,icsd-658115,"{59: 1, 13: 2, 79: 2}","[13, 59, 79]",132591792,Pr1Al2Au2
NdAl2,mp-400,0.0,5.79877094,0.0,icsd-58031,"{60: 1, 13: 2}","[13, 60]",132601,Nd1Al2
Nd(AlAu)2,mp-1078947,0.0,5.35061084,0.0,icsd-658116,"{60: 1, 13: 2, 79: 2}","[13, 60, 79]",132601792,Nd1Al2Au2
SmAl2,mp-2358,0.0,5.67583266,0.0,icsd-609376,"{62: 1, 13: 2}","[13, 62]",132621,Sm1Al2
Sm(AlAu)2,mp-1078787,0.0,5.29325736,0.0,icsd-658117,"{62: 1, 13: 2, 79: 2}","[13, 62, 79]",132621792,Sm1Al2Au2
EuAl2,mp-20111,0.0,4.90355538,0.0,icsd-57783,"{63: 1, 13: 2}","[13, 63]",132631,Eu1Al2
Eu(AlAu)2,mp-13485,0.0,5.1111028,0.0,icsd-658118,"{63: 1, 13: 2, 79: 2}","[13, 63, 79]",132631792,Eu1Al2Au2
GdAl2,mp-19923,0.0,5.82413733,0.0,icsd-607847,"{64: 1, 13: 2}","[13, 64]",132641,Gd1Al2
TbAl2,mp-756,0.0,5.83932569,0.0,icsd-609469,"{65: 1, 13: 2}","[13, 65]",132651,Tb1Al2
Tb(AlAu)2,mp-1078833,0.0,5.53602971,0.0,icsd-658120,"{65: 1, 13: 2, 79: 2}","[13, 65, 79]",132651792,Tb1Al2Au2
DyAl2,mp-803,0.0,5.83997558,0.0,icsd-607231,"{66: 1, 13: 2}","[13, 66]",132661,Dy1Al2
HoAl2,mp-391,0.0,5.80546216,0.0,icsd-57911,"{67: 1, 13: 2}","[13, 67]",132671,Ho1Al2
ErAl2,mp-1208,0.0,5.836814,0.0,icsd-607348,"{68: 1, 13: 2}","[13, 68]",132681,Er1Al2
TmAl2,mp-858,0.0,5.81859984,0.0,icsd-609566,"{69: 1, 13: 2}","[13, 69]",132691,Tm1Al2
Tm3Al2,mp-982635,0.0,3.97367006,0.0,icsd-609561,"{69: 3, 13: 2}","[13, 69]",132693,Tm3Al2
LuAl2,mp-1234,0.0,5.79936637,0.0,icsd-608375,"{71: 1, 13: 2}","[13, 71]",132711,Lu1Al2
Lu3Al2,mp-16508,0.0,3.96063131,0.0,icsd-57959,"{71: 3, 13: 2}","[13, 71]",132713,Lu3Al2
HfAl2,mp-12657,0.0,7.21439226,0.0,icsd-608062,"{72: 1, 13: 2}","[13, 72]",132721,Hf1Al2
Hf6Al2Pt,mp-1079155,0.0,5.38097565,0.0,icsd-261007,"{72: 6, 13: 2, 78: 1}","[13, 72, 78]",132726781,Hf6Al2Pt1
Al2Os,mp-7188,0.2898999999999994,9.1716797,0.0,icsd-58108,"{13: 2, 76: 1}","[13, 76]",132761,Al2Os1
Al2Pt,mp-1502,0.0,7.19129498,0.0,icsd-609154,"{13: 2, 78: 1}","[13, 78]",132781,Al2Pt1
Al2Au,mp-2647,0.0,7.25105118,0.0,icsd-606031,"{13: 2, 79: 1}","[13, 79]",132791,Al2Au1
Th(AlAu)2,mp-1078533,0.0,6.94743367,0.0,icsd-658122,"{90: 1, 13: 2, 79: 2}","[13, 79, 90]",132792901,Th1Al2Au2
ThAl2,mp-669,0.0,6.8290467,0.0,icsd-609505,"{90: 1, 13: 2}","[13, 90]",132901,Th1Al2
UAl2,mp-569744,0.0,9.64215339,0.0,icsd-106979,"{92: 1, 13: 2}","[13, 92]",132921,U1Al2
NpAl2,mp-20660,0.0,10.08377514,0.0,icsd-58086,"{93: 1, 13: 2}","[13, 93]",132931,Np1Al2
PuAl2,mp-21416,0.0,10.69173329,0.0,icsd-58140,"{94: 1, 13: 2}","[13, 94]",132941,Pu1Al2
Y2Al3Si2,mp-9177,0.0,6.62346836,0.0,icsd-75228,"{39: 2, 13: 3, 14: 2}","[13, 14, 39]",133142392,Y2Al3Si2
Tb2Al3Si2,mp-3194,0.0,6.49159911,0.0,icsd-415146,"{65: 2, 13: 3, 14: 2}","[13, 14, 65]",133142652,Tb2Al3Si2
Dy2Al3Si2,mp-3513,0.0,6.52151719,0.0,icsd-415149,"{66: 2, 13: 3, 14: 2}","[13, 14, 66]",133142662,Dy2Al3Si2
Ho2Al3Si2,mp-3328,0.0,6.54797123,0.0,icsd-87610,"{67: 2, 13: 3, 14: 2}","[13, 14, 67]",133142672,Ho2Al3Si2
Er2Al3Si2,mp-12004,0.0,6.59075794,0.0,icsd-415148,"{68: 2, 13: 3, 14: 2}","[13, 14, 68]",133142682,Er2Al3Si2
Tm2Al3Si2,mp-12005,0.0,6.60783039,0.0,icsd-415150,"{69: 2, 13: 3, 14: 2}","[13, 14, 69]",133142692,Tm2Al3Si2
Ba3Al3P5,mp-1196964,1.4661,3.49184516,0.0,icsd-425290,"{56: 3, 13: 3, 15: 5}","[13, 15, 56]",133155563,Ba3Al3P5
Ho(AlCl4)3,mp-29796,4.31,-1.60078844,0.0,icsd-40302,"{67: 1, 13: 3, 17: 12}","[13, 17, 67]",1331712671,Ho1Al3Cl12
Ca8Al3,mp-1190736,0.0,2.96917476,0.0,icsd-165240,"{20: 8, 13: 3}","[13, 20]",133208,Ca8Al3
ScAl3,mp-2121,0.0,6.85653516,0.0,icsd-609305,"{21: 1, 13: 3}","[13, 21]",133211,Sc1Al3
Sc2Al3Ru,mp-10911,0.0,6.37785444,0.0,icsd-58159,"{21: 2, 13: 3, 44: 1}","[13, 21, 44]",133212441,Sc2Al3Ru1
TiAl3,mp-542915,0.0,7.78769136,0.0,icsd-609542,"{22: 1, 13: 3}","[13, 22]",133221,Ti1Al3
Al3V,mp-2554,0.0,8.06089505,0.0,icsd-151104,"{13: 3, 23: 1}","[13, 23]",133231,Al3V1
Er3Al3CoGe2,mp-1205920,0.0,5.67215046,0.0,pf-14743,"{68: 3, 13: 3, 27: 1, 32: 2}","[13, 27, 32, 68]",133271322683,Er3Al3Co1Ge2
Er2Al3Co,mp-567849,0.0,5.5797849,0.0,icsd-606559,"{68: 2, 13: 3, 27: 1}","[13, 27, 68]",133271682,Er2Al3Co1
Lu2Al3Co,mp-16490,0.0,5.53110333,0.0,icsd-57617,"{71: 2, 13: 3, 27: 1}","[13, 27, 71]",133271712,Lu2Al3Co1
LaAl3Cu,mp-1070573,0.0,7.57654816,0.0,icsd-191717,"{57: 1, 13: 3, 29: 1}","[13, 29, 57]",133291571,La1Al3Cu1
CeAl3Cu,mp-1069443,0.0,7.38378387,0.0,icsd-190993,"{58: 1, 13: 3, 29: 1}","[13, 29, 58]",133291581,Ce1Al3Cu1
PrAl3Cu,mp-1069825,0.0,6.17848976,0.0,icsd-290390,"{59: 1, 13: 3, 29: 1}","[13, 29, 59]",133291591,Pr1Al3Cu1
NdAl3Cu,mp-1069375,0.0,6.23279926,0.0,icsd-290391,"{60: 1, 13: 3, 29: 1}","[13, 29, 60]",133291601,Nd1Al3Cu1
GdAl3Cu,mp-1076933,0.0,6.36867154,0.0,icsd-658383,"{64: 1, 13: 3, 29: 1}","[13, 29, 64]",133291641,Gd1Al3Cu1
EuAl3Cu2,mp-1025136,0.0,6.31782205,0.0,pf-41446,"{63: 1, 13: 3, 29: 2}","[13, 29, 63]",133292631,Eu1Al3Cu2
TbAl3Cu2,mp-1208292,0.0,6.53751779,0.0,pf-39478,"{65: 1, 13: 3, 29: 2}","[13, 29, 65]",133292651,Tb1Al3Cu2
Ba3Al3Ga2,mp-569218,0.0,3.56712546,0.0,icsd-415931,"{56: 3, 13: 3, 31: 2}","[13, 31, 56]",133312563,Ba3Al3Ga2
Ce2Al3Ge4,mp-18232,0.0,6.94999709,0.0,icsd-606466,"{58: 2, 13: 3, 32: 4}","[13, 32, 58]",133324582,Ce2Al3Ge4
Ba3Al3As5,mp-1203016,1.2935999999999996,2.98971501,0.0,icsd-425292,"{56: 3, 13: 3, 33: 5}","[13, 33, 56]",133335563,Ba3Al3As5
La(AlBr4)3,mp-568896,2.6083,-1.12199274,0.0,icsd-72281,"{57: 1, 13: 3, 35: 12}","[13, 35, 57]",1333512571,La1Al3Br12
Ce(AlBr4)3,mp-1214275,0.2026,0.2395849,0.0,pf-16238,"{58: 1, 13: 3, 35: 12}","[13, 35, 58]",1333512581,Ce1Al3Br12
Pr(AlBr4)3,mp-567874,3.3654,-1.35966133,0.0,icsd-72282,"{59: 1, 13: 3, 35: 12}","[13, 35, 59]",1333512591,Pr1Al3Br12
Nd(AlBr4)3,mp-28757,3.3848000000000003,-1.46598878,0.0,icsd-72283,"{60: 1, 13: 3, 35: 12}","[13, 35, 60]",1333512601,Nd1Al3Br12
Sm(AlBr4)3,mp-1209201,3.4356,-1.14172292,0.0,pf-26777,"{62: 1, 13: 3, 35: 12}","[13, 35, 62]",1333512621,Sm1Al3Br12
YAl3,mp-865527,0.0,6.05470019,0.0,icsd-58220,"{39: 1, 13: 3}","[13, 39]",133391,Y1Al3
ZrAl3,mp-395,0.0,7.23535637,0.0,icsd-107130,"{40: 1, 13: 3}","[13, 40]",133401,Zr1Al3
Zr4Al3,mp-12752,0.0,5.43364788,0.0,icsd-150529,"{40: 4, 13: 3}","[13, 40]",133404,Zr4Al3
NbAl3,mp-1842,0.0,7.64565946,0.0,icsd-58015,"{41: 1, 13: 3}","[13, 41]",133411,Nb1Al3
Al3Ru2,mp-1070580,0.0,9.17053446,0.0,icsd-609226,"{13: 3, 44: 2}","[13, 44]",133442,Al3Ru2
Al3Pd2,mp-10901,0.0,7.3746062,0.0,icsd-58117,"{13: 3, 46: 2}","[13, 46]",133462,Al3Pd2
LaAl3Pd2,mp-30815,0.0,7.21709638,0.0,icsd-105500,"{57: 1, 13: 3, 46: 2}","[13, 46, 57]",133462571,La1Al3Pd2
CeAl3Pd2,mp-4785,0.0,7.04466012,0.0,icsd-603042,"{58: 1, 13: 3, 46: 2}","[13, 46, 58]",133462581,Ce1Al3Pd2
NdAl3Pd2,mp-12734,0.0,5.91303013,0.0,icsd-150136,"{60: 1, 13: 3, 46: 2}","[13, 46, 60]",133462601,Nd1Al3Pd2
SmAl3Pd2,mp-11539,0.0,5.83046045,0.0,icsd-105540,"{62: 1, 13: 3, 46: 2}","[13, 46, 62]",133462621,Sm1Al3Pd2
EuAl3Pd2,mp-1189717,0.0,5.3432572,0.0,icsd-402471,"{63: 1, 13: 3, 46: 2}","[13, 46, 63]",133462631,Eu1Al3Pd2
GdAl3Pd2,mp-22505,0.0,5.89916358,0.0,icsd-105145,"{64: 1, 13: 3, 46: 2}","[13, 46, 64]",133462641,Gd1Al3Pd2
Al3Pd5,mp-16523,0.0,6.61799482,0.0,icsd-58118,"{13: 3, 46: 5}","[13, 46]",133465,Al3Pd5
LaAl3,mp-959,0.0,6.98603163,0.0,icsd-658314,"{57: 1, 13: 3}","[13, 57]",133571,La1Al3
LaAl3Au,mp-1069603,0.0,7.65319603,0.0,icsd-191722,"{57: 1, 13: 3, 79: 1}","[13, 57, 79]",133571791,La1Al3Au1
CeAl3,mp-567305,0.0,7.18588475,0.0,icsd-150603,"{58: 1, 13: 3}","[13, 58]",133581,Ce1Al3
CeAl3Au,mp-1070063,0.0,7.21352516,0.0,icsd-191716,"{58: 1, 13: 3, 79: 1}","[13, 58, 79]",133581791,Ce1Al3Au1
PrAl3,mp-12553,0.0,5.49499612,0.0,icsd-609096,"{59: 1, 13: 3}","[13, 59]",133591,Pr1Al3
NdAl3,mp-16513,0.0,5.52838116,0.0,icsd-658317,"{60: 1, 13: 3}","[13, 60]",133601,Nd1Al3
SmAl3,mp-867870,0.0,5.65312246,0.0,icsd-609381,"{62: 1, 13: 3}","[13, 62]",133621,Sm1Al3
Eu2(AlAu2)3,mp-1190659,0.0,5.05832989,0.0,icsd-427021,"{63: 2, 13: 3, 79: 6}","[13, 63, 79]",133632796,Eu2Al3Au6
LuAl3,mp-2805,0.0,6.0981507,0.0,icsd-57960,"{71: 1, 13: 3}","[13, 71]",133711,Lu1Al3
HfAl3,mp-568718,0.0,7.42962835,0.0,icsd-608102,"{72: 1, 13: 3}","[13, 72]",133721,Hf1Al3
Hf4Al3,mp-1025223,0.0,5.91520622,0.0,icsd-608072,"{72: 4, 13: 3}","[13, 72]",133724,Hf4Al3
TaAl3,mp-869,0.0,7.96581644,0.0,icsd-107889,"{73: 1, 13: 3}","[13, 73]",133731,Ta1Al3
Al3Ir,mp-2294,0.0,9.22982461,0.0,icsd-608237,"{13: 3, 77: 1}","[13, 77]",133771,Al3Ir1
Al3Pt2,mp-10905,0.0,8.44059413,0.0,icsd-602213,"{13: 3, 78: 2}","[13, 78]",133782,Al3Pt2
Al3Pt5,mp-1501,0.0,8.49503962,0.0,icsd-656681,"{13: 3, 78: 5}","[13, 78]",133785,Al3Pt5
ThAl3,mp-1306,0.0,7.35700786,0.0,icsd-58184,"{90: 1, 13: 3}","[13, 90]",133901,Th1Al3
UAl3,mp-1723,0.0,8.55819662,0.0,icsd-609574,"{92: 1, 13: 3}","[13, 92]",133921,U1Al3
Tb6Al39Cr8,mp-1208616,0.0,7.07957814,0.0,pf-14926,"{65: 6, 13: 39, 24: 8}","[13, 24, 65]",1339248656,Tb6Al39Cr8
Ba21Al40,mp-567701,0.0,4.28006793,0.0,icsd-170238,"{56: 21, 13: 40}","[13, 56]",13405621,Ba21Al40
CeAl4Si2Rh,mp-1078224,0.0,8.09206659,0.0,icsd-193819,"{58: 1, 13: 4, 14: 2, 45: 1}","[13, 14, 45, 58]",134142451581,Ce1Al4Si2Rh1
CeAl4Si2Ir,mp-1078427,0.0,8.21236636,0.0,icsd-193820,"{58: 1, 13: 4, 14: 2, 77: 1}","[13, 14, 58, 77]",134142581771,Ce1Al4Si2Ir1
Th2Al4Si2Au3,mp-1208226,0.0,7.33182199,0.0,pf-24733,"{90: 2, 13: 4, 14: 2, 79: 3}","[13, 14, 79, 90]",134142793902,Th2Al4Si2Au3
BaAl4S7,mp-8258,3.1571,2.88616483,0.0,icsd-33237,"{56: 1, 13: 4, 16: 7}","[13, 16, 56]",134167561,Ba1Al4S7
CaAl4,mp-1749,0.0,5.64549373,0.0,icsd-606298,"{20: 1, 13: 4}","[13, 20]",134201,Ca1Al4
Gd2Al4CoGe2,mp-1078369,0.0,5.93235399,0.0,icsd-291351,"{64: 2, 13: 4, 27: 1, 32: 2}","[13, 27, 32, 64]",134271322642,Gd2Al4Co1Ge2
Er2Al4CoGe2,mp-1205974,0.0,6.11121609,0.0,pf-25280,"{68: 2, 13: 4, 27: 1, 32: 2}","[13, 27, 32, 68]",134271322682,Er2Al4Co1Ge2
LaAl4Co,mp-12274,0.0,8.00445133,0.0,icsd-9986,"{57: 1, 13: 4, 27: 1}","[13, 27, 57]",134271571,La1Al4Co1
CeAl4Co,mp-13504,0.0,7.84218908,0.0,icsd-164541,"{58: 1, 13: 4, 27: 1}","[13, 27, 58]",134271581,Ce1Al4Co1
NdAl4Co,mp-12896,0.0,6.65291417,0.0,icsd-154678,"{60: 1, 13: 4, 27: 1}","[13, 27, 60]",134271601,Nd1Al4Co1
Al4Cu9,mp-593,0.0,7.91016639,0.0,icsd-57669,"{13: 4, 29: 9}","[13, 29]",134299,Al4Cu9
Ca6Al43W4,mp-1214183,0.0,7.08271612,0.0,pf-33097,"{20: 6, 13: 43, 74: 4}","[13, 20, 74]",1343206744,Ca6Al43W4
Y6Ti4Al43,mp-1207858,0.0,7.02097105,0.0,pf-17741,"{39: 6, 22: 4, 13: 43}","[13, 22, 39]",1343224396,Y6Ti4Al43
Nd6Ti4Al43,mp-1210322,0.0,6.93243115,0.0,pf-28312,"{60: 6, 22: 4, 13: 43}","[13, 22, 60]",1343224606,Nd6Ti4Al43
Sm6Ti4Al43,mp-1209147,0.0,6.82545185,0.0,pf-5923,"{62: 6, 22: 4, 13: 43}","[13, 22, 62]",1343224626,Sm6Ti4Al43
Tb6Ti4Al43,mp-1208501,0.0,7.01202428,0.0,pf-26899,"{65: 6, 22: 4, 13: 43}","[13, 22, 65]",1343224656,Tb6Ti4Al43
Dy6Ti4Al43,mp-567159,0.0,6.98986475,0.0,icsd-150119,"{66: 6, 22: 4, 13: 43}","[13, 22, 66]",1343224666,Dy6Ti4Al43
Ho6Ti4Al43,mp-1212360,0.0,7.0107208,0.0,pf-37415,"{67: 6, 22: 4, 13: 43}","[13, 22, 67]",1343224676,Ho6Ti4Al43
Er6Ti4Al43,mp-1213416,0.0,7.00807551,0.0,pf-6006,"{68: 6, 22: 4, 13: 43}","[13, 22, 68]",1343224686,Er6Ti4Al43
Tm6Ti4Al43,mp-1208191,0.0,7.05809642,0.0,pf-16454,"{69: 6, 22: 4, 13: 43}","[13, 22, 69]",1343224696,Tm6Ti4Al43
Lu6Ti4Al43,mp-1211304,0.0,7.0422345,0.0,pf-37486,"{71: 6, 22: 4, 13: 43}","[13, 22, 71]",1343224716,Lu6Ti4Al43
Nd6Al43V4,mp-1210363,0.0,7.15781105,0.0,pf-6084,"{60: 6, 13: 43, 23: 4}","[13, 23, 60]",1343234606,Nd6Al43V4
Sm6Al43V4,mp-1208892,0.0,7.10984911,0.0,pf-16537,"{62: 6, 13: 43, 23: 4}","[13, 23, 62]",1343234626,Sm6Al43V4
Tb6Al43V4,mp-1208556,0.0,7.23982391,0.0,pf-4676,"{65: 6, 13: 43, 23: 4}","[13, 23, 65]",1343234656,Tb6Al43V4
Dy6Al43V4,mp-1213242,0.0,7.22105517,0.0,pf-15180,"{66: 6, 13: 43, 23: 4}","[13, 23, 66]",1343234666,Dy6Al43V4
Ho6Al43V4,mp-1212412,0.0,7.24899052,0.0,pf-25751,"{67: 6, 13: 43, 23: 4}","[13, 23, 67]",1343234676,Ho6Al43V4
Er6Al43V4,mp-1213427,0.0,7.2516517,0.0,pf-36232,"{68: 6, 13: 43, 23: 4}","[13, 23, 68]",1343234686,Er6Al43V4
Tm6Al43V4,mp-1208160,0.01470000000000038,7.30086499,0.0,pf-4758,"{69: 6, 13: 43, 23: 4}","[13, 23, 69]",1343234696,Tm6Al43V4
Lu6Al43V4,mp-1210969,0.008799999999999919,7.27758506,0.0,pf-25838,"{71: 6, 13: 43, 23: 4}","[13, 23, 71]",1343234716,Lu6Al43V4
Y6Al43Cr4,mp-1203616,0.0,7.45493338,0.0,icsd-658843,"{39: 6, 13: 43, 24: 4}","[13, 24, 39]",1343244396,Y6Al43Cr4
Sm6Al43Cr4,mp-1203633,0.0,7.20687116,0.0,icsd-658845,"{62: 6, 13: 43, 24: 4}","[13, 24, 62]",1343244626,Sm6Al43Cr4
Tb6Al43Cr4,mp-1198347,0.0,7.33492413,0.0,icsd-658847,"{65: 6, 13: 43, 24: 4}","[13, 24, 65]",1343244656,Tb6Al43Cr4
Dy6Al43Cr4,mp-1198914,0.0,7.30591255,0.0,icsd-658848,"{66: 6, 13: 43, 24: 4}","[13, 24, 66]",1343244666,Dy6Al43Cr4
Ho6Al43Cr4,mp-1199361,0.0,7.38969386,0.0,icsd-658849,"{67: 6, 13: 43, 24: 4}","[13, 24, 67]",1343244676,Ho6Al43Cr4
Er6Al43Cr4,mp-1201665,0.0,7.47857083,0.0,icsd-658850,"{68: 6, 13: 43, 24: 4}","[13, 24, 68]",1343244686,Er6Al43Cr4
Tm6Al43Cr4,mp-1197793,0.0,7.35598801,0.0,icsd-658851,"{69: 6, 13: 43, 24: 4}","[13, 24, 69]",1343244696,Tm6Al43Cr4
U6Al43Cr4,mp-1201364,0.0,8.39452736,0.0,icsd-658853,"{92: 6, 13: 43, 24: 4}","[13, 24, 92]",1343244926,U6Al43Cr4
Ba7Al4Ge9,mp-567067,0.0,3.75661214,0.0,icsd-417660,"{56: 7, 13: 4, 32: 9}","[13, 32, 56]",134329567,Ba7Al4Ge9
Y6Ta4Al43,mp-1207857,0.006000000000000227,7.14507468,0.0,pf-21292,"{39: 6, 73: 4, 13: 43}","[13, 39, 73]",1343396734,Y6Ta4Al43
Y6Al43W4,mp-1199868,0.0,7.3709516,0.0,icsd-658866,"{39: 6, 13: 43, 74: 4}","[13, 39, 74]",1343396744,Y6Al43W4
Sm6Nb4Al43,mp-1208824,0.0,6.90966917,0.0,pf-6612,"{62: 6, 41: 4, 13: 43}","[13, 41, 62]",1343414626,Sm6Nb4Al43
Tm6Nb4Al43,mp-1208184,0.0,7.07516772,0.0,pf-27722,"{69: 6, 41: 4, 13: 43}","[13, 41, 69]",1343414696,Tm6Nb4Al43
Lu6Nb4Al43,mp-1210971,0.0,7.08741805,0.0,pf-6769,"{71: 6, 41: 4, 13: 43}","[13, 41, 71]",1343414716,Lu6Nb4Al43