formula,material_id,band_gap,efermi,energy_above_hull,database_IDs,comp_atoms,sorted_keys_comp_atoms,comp_number,new_formula
Al2(SO4)3,mp-4417,6.0272,1.09841717,0.0,icsd-32589,"{13: 2, 16: 3, 8: 12}","[8, 13, 16]",812132163,Al2S3O12
K3Al2(AsO4)3,mp-1197125,3.2748,-0.35028384,0.0,icsd-262371,"{19: 3, 13: 2, 33: 3, 8: 12}","[8, 13, 19, 33]",812132193333,K3Al2As3O12
Ca3Al2(GeO4)3,mp-1214222,3.5021,3.41599685,0.0,pf-20345,"{20: 3, 13: 2, 32: 3, 8: 12}","[8, 13, 20, 32]",812132203323,Ca3Al2Ge3O12
Al2Cd3(GeO4)3,mp-1214967,2.9874,2.26339282,0.0,pf-35256,"{13: 2, 48: 3, 32: 3, 8: 12}","[8, 13, 32, 48]",812132323483,Al2Cd3Ge3O12
Al2(MoO4)3,mp-19521,3.5374,-0.41847567,0.0,icsd-80448,"{13: 2, 42: 3, 8: 12}","[8, 13, 42]",812132423,Al2Mo3O12
K4Al3Si3ClO12,mp-23149,4.5823,-0.31210711,0.0,icsd-41191,"{19: 4, 13: 3, 14: 3, 17: 1, 8: 12}","[8, 13, 14, 17, 19]",812133143171194,K4Al3Si3Cl1O12
Al3Si3Ag4IO12,mp-1214863,2.4186000000000005,1.3179812,0.0,pf-3810,"{13: 3, 14: 3, 47: 4, 53: 1, 8: 12}","[8, 13, 14, 47, 53]",812133143474531,Al3Si3Ag4I1O12
Y3Sc2Al3O12,mp-14678,4.2714,2.92801645,0.0,icsd-67055,"{39: 3, 21: 2, 13: 3, 8: 12}","[8, 13, 21, 39]",812133212393,Y3Sc2Al3O12
Sm3Sc2Al3O12,mp-1209040,4.316,6.89323685,0.0,pf-31657,"{62: 3, 21: 2, 13: 3, 8: 12}","[8, 13, 21, 62]",812133212623,Sm3Sc2Al3O12
Gd3Sc2Al3O12,mp-1213017,3.2885000000000004,2.70299872,0.0,pf-1559,"{64: 3, 21: 2, 13: 3, 8: 12}","[8, 13, 21, 64]",812133212643,Gd3Sc2Al3O12
Dy3Sc2Al3O12,mp-1213138,4.7071000000000005,7.35710019,0.0,pf-32975,"{66: 3, 21: 2, 13: 3, 8: 12}","[8, 13, 21, 66]",812133212663,Dy3Sc2Al3O12
Ho3Sc2Al3O12,mp-1212436,4.763999999999999,7.33392048,0.0,pf-22474,"{67: 3, 21: 2, 13: 3, 8: 12}","[8, 13, 21, 67]",812133212673,Ho3Sc2Al3O12
Er3Sc2Al3O12,mp-1213255,4.8641000000000005,7.50979605,0.0,pf-11933,"{68: 3, 21: 2, 13: 3, 8: 12}","[8, 13, 21, 68]",812133212683,Er3Sc2Al3O12
Y3Al3Cr2O12,mp-1207891,3.5074,3.79926154,0.0,pf-35925,"{39: 3, 13: 3, 24: 2, 8: 12}","[8, 13, 24, 39]",812133242393,Y3Al3Cr2O12
Er3Al3Cr2O12,mp-1213214,3.5394999999999994,3.40757133,0.0,pf-14866,"{68: 3, 13: 3, 24: 2, 8: 12}","[8, 13, 24, 68]",812133242683,Er3Al3Cr2O12
BaAl4(SbO6)2,mp-1196877,3.3158000000000003,4.4841502,0.0,icsd-422875,"{56: 1, 13: 4, 51: 2, 8: 12}","[8, 13, 51, 56]",812134512561,Ba1Al4Sb2O12
Y3Al5O12,mp-3050,4.4951,3.56806888,0.0,icsd-67102,"{39: 3, 13: 5, 8: 12}","[8, 13, 39]",812135393,Y3Al5O12
Gd3Al5O12,mp-14133,3.4625,3.59226318,0.0,icsd-23849,"{64: 3, 13: 5, 8: 12}","[8, 13, 64]",812135643,Gd3Al5O12
Tb3Al5O12,mp-14387,4.473000000000001,3.53625266,0.0,icsd-33602,"{65: 3, 13: 5, 8: 12}","[8, 13, 65]",812135653,Tb3Al5O12
Ho3Al5O12,mp-14388,4.6662,3.46737362,0.0,icsd-33603,"{67: 3, 13: 5, 8: 12}","[8, 13, 67]",812135673,Ho3Al5O12
Er3Al5O12,mp-3384,4.758,3.56097132,0.0,icsd-170146,"{68: 3, 13: 5, 8: 12}","[8, 13, 68]",812135683,Er3Al5O12
Tm3Al5O12,mp-1208102,4.7315000000000005,3.29885594,0.0,pf-35427,"{69: 3, 13: 5, 8: 12}","[8, 13, 69]",812135693,Tm3Al5O12
Lu3Al5O12,mp-14132,5.0364,3.50399121,0.0,icsd-182354,"{71: 3, 13: 5, 8: 12}","[8, 13, 71]",812135713,Lu3Al5O12
Ca4Al6SO12,mp-8876,3.7247000000000003,1.27480917,0.0,icsd-67589,"{20: 4, 13: 6, 16: 1, 8: 12}","[8, 13, 16, 20]",812136161204,Ca4Al6S1O12
Sr4Al6SO12,mp-8877,3.3427000000000002,1.18555852,0.0,icsd-67590,"{38: 4, 13: 6, 16: 1, 8: 12}","[8, 13, 16, 38]",812136161384,Sr4Al6S1O12
Al6Cd4SO12,mp-9203,2.7127,0.53113891,0.0,icsd-78368,"{13: 6, 48: 4, 16: 1, 8: 12}","[8, 13, 16, 48]",812136161484,Al6Cd4S1O12
Ca4Al6TeO12,mp-15312,3.1464999999999996,1.90372664,0.0,icsd-86156,"{20: 4, 13: 6, 52: 1, 8: 12}","[8, 13, 20, 52]",812136204521,Ca4Al6Te1O12
Sr4Al6SeO12,mp-1208447,3.1075,1.25255979,0.0,pf-11803,"{38: 4, 13: 6, 34: 1, 8: 12}","[8, 13, 34, 38]",812136341384,Sr4Al6Se1O12
Sr4Al6TeO12,mp-9392,2.838,1.8677129,0.0,icsd-82609,"{38: 4, 13: 6, 52: 1, 8: 12}","[8, 13, 38, 52]",812136384521,Sr4Al6Te1O12
Al6Cd4TeO12,mp-9535,2.5652,0.86288426,0.0,icsd-86155,"{13: 6, 48: 4, 52: 1, 8: 12}","[8, 13, 48, 52]",812136484521,Al6Cd4Te1O12
Na14Al4O13,mp-31008,2.2241,1.2132395,0.0,icsd-38063,"{11: 14, 13: 4, 8: 13}","[8, 11, 13]",8131114134,Na14Al4O13
Ba5Al2In2IrClO13,mp-559534,0.0,3.47542046,0.0,icsd-71602,"{56: 5, 13: 2, 49: 2, 77: 1, 17: 1, 8: 13}","[8, 13, 17, 49, 56, 77]",813132171492565771,Ba5Al2In2Ir1Cl1O13
Ba5Ho2ZrAl2O13,mp-1214508,2.5553,1.83177971,0.0,pf-38673,"{56: 5, 67: 2, 40: 1, 13: 2, 8: 13}","[8, 13, 40, 56, 67]",813132401565672,Ba5Ho2Zr1Al2O13
Ba5Er2ZrAl2O13,mp-558566,2.5861,1.97100894,0.0,icsd-80314,"{56: 5, 68: 2, 40: 1, 13: 2, 8: 13}","[8, 13, 40, 56, 68]",813132401565682,Ba5Er2Zr1Al2O13
Ba5Tm2ZrAl2O13,mp-1214492,2.4930999999999996,1.85359975,0.0,pf-7288,"{56: 5, 69: 2, 40: 1, 13: 2, 8: 13}","[8, 13, 40, 56, 69]",813132401565692,Ba5Tm2Zr1Al2O13
Ba5Lu2ZrAl2O13,mp-1214534,2.5528999999999997,1.99959947,0.0,pf-37352,"{56: 5, 71: 2, 40: 1, 13: 2, 8: 13}","[8, 13, 40, 56, 71]",813132401565712,Ba5Lu2Zr1Al2O13
Ba6Y2Al4O15,mp-1214519,3.9211,5.85777856,0.0,pf-19734,"{56: 6, 39: 2, 13: 4, 8: 15}","[8, 13, 39, 56]",815134392566,Ba6Y2Al4O15
Ba6Nd2Al4O15,mp-1214526,3.9421,5.78010854,0.0,pf-18451,"{56: 6, 60: 2, 13: 4, 8: 15}","[8, 13, 56, 60]",815134566602,Ba6Nd2Al4O15
Ba6Sm2Al4O15,mp-1214532,3.9418999999999995,5.78589065,0.0,pf-7939,"{56: 6, 62: 2, 13: 4, 8: 15}","[8, 13, 56, 62]",815134566622,Ba6Sm2Al4O15
Ba6Gd2Al4O15,mp-1214682,3.4318999999999997,5.30471928,0.0,pf-28908,"{56: 6, 64: 2, 13: 4, 8: 15}","[8, 13, 56, 64]",815134566642,Ba6Gd2Al4O15
Ba6Tb2Al4O15,mp-1214513,3.9253,5.84997399,0.0,pf-18368,"{56: 6, 65: 2, 13: 4, 8: 15}","[8, 13, 56, 65]",815134566652,Ba6Tb2Al4O15
Ba6Dy2Al4O15,mp-1214541,3.928,5.86022651,0.0,pf-9213,"{56: 6, 66: 2, 13: 4, 8: 15}","[8, 13, 56, 66]",815134566662,Ba6Dy2Al4O15
Ba6Tm2Al4O15,mp-1214515,3.8884999999999996,5.82049706,0.0,pf-7870,"{56: 6, 69: 2, 13: 4, 8: 15}","[8, 13, 56, 69]",815134566692,Ba6Tm2Al4O15
Ba6Lu2Al4O15,mp-1214530,3.8537999999999997,2.00197324,0.0,pf-30232,"{56: 6, 71: 2, 13: 4, 8: 15}","[8, 13, 56, 71]",815134566712,Ba6Lu2Al4O15
Ca2Al8PbO15,mp-1200432,3.9161,2.57264338,0.0,icsd-262264,"{20: 2, 13: 8, 82: 1, 8: 15}","[8, 13, 20, 82]",815138202821,Ca2Al8Pb1O15
Na2SrAl4(SiO4)4,mp-556356,4.7044999999999995,1.38240157,0.0,icsd-156656,"{11: 2, 38: 1, 13: 4, 14: 4, 8: 16}","[8, 11, 13, 14, 38]",816112134144381,Na2Sr1Al4Si4O16
BaNa2Al4(SiO4)4,mp-6875,4.7346,1.18274757,0.0,icsd-156657,"{56: 1, 11: 2, 13: 4, 14: 4, 8: 16}","[8, 11, 13, 14, 56]",816112134144561,Ba1Na2Al4Si4O16
Na5Ca2Al(PO4)4,mp-559777,4.6495999999999995,1.41445419,0.0,icsd-400310,"{11: 5, 20: 2, 13: 1, 15: 4, 8: 16}","[8, 11, 13, 15, 20]",816115131154202,Na5Ca2Al1P4O16
CsZr2Al(PO4)4,mp-1019720,4.0152,0.15583756,0.0,icsd-261232,"{55: 1, 40: 2, 13: 1, 15: 4, 8: 16}","[8, 13, 15, 40, 55]",816131154402551,Cs1Zr2Al1P4O16
Ca4Al6SO16,mp-1019575,4.4065,0.94152407,0.0,icsd-237892,"{20: 4, 13: 6, 16: 1, 8: 16}","[8, 13, 16, 20]",816136161204,Ca4Al6S1O16
Ca4Al6MoO16,mp-556889,3.3371000000000004,0.93858179,0.0,icsd-84678,"{20: 4, 13: 6, 42: 1, 8: 16}","[8, 13, 20, 42]",816136204421,Ca4Al6Mo1O16
Sr4Al6CrO16,mp-554152,2.1942999999999997,0.89190743,0.0,icsd-94497,"{38: 4, 13: 6, 24: 1, 8: 16}","[8, 13, 24, 38]",816136241384,Sr4Al6Cr1O16
Sr4Al6MoO16,mp-6120,3.5624999999999996,1.25921954,0.0,icsd-72687,"{38: 4, 13: 6, 42: 1, 8: 16}","[8, 13, 38, 42]",816136384421,Sr4Al6Mo1O16
Sr4Al6WO16,mp-14865,3.6824000000000003,1.18647546,0.0,icsd-72692,"{38: 4, 13: 6, 74: 1, 8: 16}","[8, 13, 38, 74]",816136384741,Sr4Al6W1O16
Ca6Al7O16,mp-721592,0.0,5.50113607,0.0,icsd-164634,"{20: 6, 13: 7, 8: 16}","[8, 13, 20]",816137206,Ca6Al7O16
NaAl11O17,mp-3405,4.4910000000000005,3.72092578,0.0,icsd-16933,"{11: 1, 13: 11, 8: 17}","[8, 11, 13]",8171111311,Na1Al11O17
Mn2Al4Si5O18,mp-19477,3.6814,1.34077192,0.0,icsd-89076,"{25: 2, 13: 4, 14: 5, 8: 18}","[8, 13, 14, 25]",818134145252,Mn2Al4Si5O18
Al4Fe2Si5O18,mp-1204107,3.8626999999999994,1.45298244,0.0,icsd-237135,"{13: 4, 26: 2, 14: 5, 8: 18}","[8, 13, 14, 26]",818134145262,Al4Fe2Si5O18
EuAl12O19,mp-1212749,0.16959999999999908,10.08397913,0.0,pf-23084,"{63: 1, 13: 12, 8: 19}","[8, 13, 63]",8191312631,Eu1Al12O19
Ba7Sc6Al2O19,mp-559325,2.4206999999999996,2.43714339,0.0,icsd-39442,"{56: 7, 21: 6, 13: 2, 8: 19}","[8, 13, 21, 56]",819132216567,Ba7Sc6Al2O19
RbAl3(P3O10)2,mp-555621,5.4378,0.97591985,0.0,icsd-414552,"{37: 1, 13: 3, 15: 6, 8: 20}","[8, 13, 15, 37]",820133156371,Rb1Al3P6O20
K4Nb11Al2O20F,mp-557200,0.6848999999999998,4.10388245,0.0,icsd-65738,"{19: 4, 41: 11, 13: 2, 8: 20, 9: 1}","[8, 9, 13, 19, 41]",820911321944111,K4Nb11Al2O20F1
NaAlO2,mp-9212,3.7968,1.55036294,0.0,icsd-79404,"{11: 1, 13: 1, 8: 2}","[8, 11, 13]",82111131,Na1Al1O2
Al8(Pb3O7)3,mp-13875,2.8716,3.79629346,0.0,icsd-24393,"{13: 8, 82: 9, 8: 21}","[8, 13, 82]",821138829,Al8Pb9O21
AlSCl3O2,mp-556418,3.9643,-1.3771477,0.0,icsd-170859,"{13: 1, 16: 1, 17: 3, 8: 2}","[8, 13, 16, 17]",82131161173,Al1S1Cl3O2
KAlO2,mp-5525,3.9993999999999996,1.32309697,0.0,icsd-91842,"{19: 1, 13: 1, 8: 2}","[8, 13, 19]",82131191,K1Al1O2
AlCuO2,mp-3098,1.8148,6.09085843,0.0,icsd-60845,"{13: 1, 29: 1, 8: 2}","[8, 13, 29]",82131291,Al1Cu1O2
RbAlO2,mp-14070,3.4901999999999997,1.58674339,0.0,icsd-28373,"{37: 1, 13: 1, 8: 2}","[8, 13, 37]",82131371,Rb1Al1O2
AlAgO2,mp-9631,1.4090999999999996,4.20479798,0.0,icsd-95662,"{13: 1, 47: 1, 8: 2}","[8, 13, 47]",82131471,Al1Ag1O2
CsAlO2,mp-14069,4.273499999999999,2.49624856,0.0,icsd-28372,"{55: 1, 13: 1, 8: 2}","[8, 13, 55]",82131551,Cs1Al1O2
Na3AlP8O23,mp-14389,5.2445,0.93294341,0.0,icsd-39827,"{11: 3, 13: 1, 15: 8, 8: 23}","[8, 11, 13, 15]",823113131158,Na3Al1P8O23
Mn13Al4Si2(SbO14)2,mp-560917,1.1216,4.11452795,0.0,icsd-12137,"{25: 13, 13: 4, 14: 2, 51: 2, 8: 28}","[8, 13, 14, 25, 51]",8281341422513512,Mn13Al4Si2Sb2O28
K3AlO3,mp-9157,2.8977,0.78674355,0.0,icsd-166540,"{19: 3, 13: 1, 8: 3}","[8, 13, 19]",83131193,K3Al1O3
Rb3AlO3,mp-14951,2.6513999999999998,1.0411919,0.0,icsd-74969,"{37: 3, 13: 1, 8: 3}","[8, 13, 37]",83131373,Rb3Al1O3
Cs3AlO3,mp-562441,2.3103999999999996,1.90700466,0.0,icsd-69353,"{55: 3, 13: 1, 8: 3}","[8, 13, 55]",83131553,Cs3Al1O3
LaAlO3,mp-1080060,3.7121000000000004,7.8461354,0.0,icsd-180417,"{57: 1, 13: 1, 8: 3}","[8, 13, 57]",83131571,La1Al1O3
CeAlO3,mp-19843,0.0,10.6471789,0.0,icsd-245266,"{58: 1, 13: 1, 8: 3}","[8, 13, 58]",83131581,Ce1Al1O3
PrAlO3,mp-3466,4.1325,5.0146354,0.0,icsd-165843,"{59: 1, 13: 1, 8: 3}","[8, 13, 59]",83131591,Pr1Al1O3
NdAlO3,mp-5899,4.353999999999999,4.91897984,0.0,icsd-90574,"{60: 1, 13: 1, 8: 3}","[8, 13, 60]",83131601,Nd1Al1O3
SmAlO3,mp-7405,4.861399999999999,4.51792709,0.0,icsd-193839,"{62: 1, 13: 1, 8: 3}","[8, 13, 62]",83131621,Sm1Al1O3
Al2O3,mp-1143,5.853700000000001,5.87476121,0.0,icsd-33639,"{13: 2, 8: 3}","[8, 13]",83132,Al2O3
NaAlSiO4,mp-560334,4.5992999999999995,0.83170616,0.0,icsd-73511,"{11: 1, 13: 1, 14: 1, 8: 4}","[8, 11, 13, 14]",84111131141,Na1Al1Si1O4
NaAlGeO4,mp-14511,3.6452,0.30159836,0.0,icsd-62316,"{11: 1, 13: 1, 32: 1, 8: 4}","[8, 11, 13, 32]",84111131321,Na1Al1Ge1O4
Na5AlO4,mp-13998,2.4191000000000003,1.08219896,0.0,icsd-26406,"{11: 5, 13: 1, 8: 4}","[8, 11, 13]",84115131,Na5Al1O4
KAlSiO4,mp-680374,4.6996,0.69091934,0.0,icsd-95367,"{19: 1, 13: 1, 14: 1, 8: 4}","[8, 13, 14, 19]",84131141191,K1Al1Si1O4
RbAlSiO4,mp-6434,4.3806,0.73608165,0.0,icsd-4335,"{37: 1, 13: 1, 14: 1, 8: 4}","[8, 13, 14, 37]",84131141371,Rb1Al1Si1O4
CsAlSiO4,mp-1192933,4.466799999999999,1.22833975,0.0,icsd-186610,"{55: 1, 13: 1, 14: 1, 8: 4}","[8, 13, 14, 55]",84131141551,Cs1Al1Si1O4
AlPO4,mp-5331,5.6187000000000005,0.44850713,0.0,icsd-33744,"{13: 1, 15: 1, 8: 4}","[8, 13, 15]",84131151,Al1P1O4
KAlGeO4,mp-651024,4.0428,-0.22474064,0.0,icsd-62317,"{19: 1, 13: 1, 32: 1, 8: 4}","[8, 13, 19, 32]",84131191321,K1Al1Ge1O4
AlVO4,mp-18827,2.8011999999999997,1.17723026,0.0,icsd-55870,"{13: 1, 23: 1, 8: 4}","[8, 13, 23]",84131231,Al1V1O4
AlAsO4,mp-5189,3.865,0.00088988,0.0,icsd-33836,"{13: 1, 33: 1, 8: 4}","[8, 13, 33]",84131331,Al1As1O4
Rb8AlAu3O4,mp-559984,1.2244,1.79873707,0.0,icsd-411730,"{37: 8, 13: 1, 79: 3, 8: 4}","[8, 13, 37, 79]",84131378793,Rb8Al1Au3O4
NbAlO4,mp-27927,3.3835000000000006,1.68925023,0.0,icsd-24078,"{41: 1, 13: 1, 8: 4}","[8, 13, 41]",84131411,Nb1Al1O4
Cs9AlO4,mp-866492,0.0,1.76428212,0.0,icsd-420321,"{55: 9, 13: 1, 8: 4}","[8, 13, 55]",84131559,Cs9Al1O4
TaAlO4,mp-8898,3.2820000000000005,3.95927057,0.0,icsd-67676,"{73: 1, 13: 1, 8: 4}","[8, 13, 73]",84131731,Ta1Al1O4
AlWO4,mp-1182867,2.9802999999999997,4.32611183,0.0,icsd-4164,"{13: 1, 74: 1, 8: 4}","[8, 13, 74]",84131741,Al1W1O4
MnAl2O4,mp-755882,2.6578,5.39059045,0.0,icsd-252228,"{25: 1, 13: 2, 8: 4}","[8, 13, 25]",84132251,Mn1Al2O4
Al2FeO4,mp-30084,0.0,7.2054822,0.0,icsd-185610,"{13: 2, 26: 1, 8: 4}","[8, 13, 26]",84132261,Al2Fe1O4
Al2ZnO4,mp-2908,3.8459999999999996,4.08233728,0.0,icsd-185609,"{13: 2, 30: 1, 8: 4}","[8, 13, 30]",84132301,Al2Zn1O4
SrAl2O4,mp-3094,4.1419999999999995,1.75401437,0.0,icsd-291357,"{38: 1, 13: 2, 8: 4}","[8, 13, 38]",84132381,Sr1Al2O4
BaAl2O4,mp-4202,4.0969,1.67216142,0.0,icsd-291356,"{56: 1, 13: 2, 8: 4}","[8, 13, 56]",84132561,Ba1Al2O4
EuAl2O4,mp-1019732,0.09919999999999973,5.74942146,0.0,icsd-237364,"{63: 1, 13: 2, 8: 4}","[8, 13, 63]",84132631,Eu1Al2O4
Al2PbO4,mp-21892,3.9425,2.84505681,0.0,icsd-33532,"{13: 2, 82: 1, 8: 4}","[8, 13, 82]",84132821,Al2Pb1O4
NaAlAsO4F,mp-14395,3.4772,1.95330351,0.0,icsd-30205,"{11: 1, 13: 1, 33: 1, 8: 4, 9: 1}","[8, 9, 11, 13, 33]",8491111131331,Na1Al1As1O4F1
Al2Si(O2F)2,mp-6280,5.6953,3.66726995,0.0,icsd-158135,"{13: 2, 14: 1, 8: 4, 9: 2}","[8, 9, 13, 14]",8492132141,Al2Si1O4F2
Al2Ge(O2F)2,mp-561437,4.0658,2.56492258,0.0,icsd-409714,"{13: 2, 32: 1, 8: 4, 9: 2}","[8, 9, 13, 32]",8492132321,Al2Ge1O4F2
K2AlSO4F3,mp-1203080,5.808,-0.51280966,0.0,icsd-161272,"{19: 2, 13: 1, 16: 1, 8: 4, 9: 3}","[8, 9, 13, 16, 19]",8493131161192,K2Al1S1O4F3
Na2Sr2Al2PO4F9,mp-558954,5.7904,0.54226298,0.0,icsd-201343,"{11: 2, 38: 2, 13: 2, 15: 1, 8: 4, 9: 9}","[8, 9, 11, 13, 15, 38]",8499112132151382,Na2Sr2Al2P1O4F9
AlFePO5,mp-17477,3.5128,1.98127068,0.0,icsd-74760,"{13: 1, 26: 1, 15: 1, 8: 5}","[8, 13, 15, 26]",85131151261,Al1Fe1P1O5
CaTaAlO5,mp-15733,3.9006999999999996,1.94494595,0.0,icsd-50718,"{20: 1, 73: 1, 13: 1, 8: 5}","[8, 13, 20, 73]",85131201731,Ca1Ta1Al1O5
ErAlGeO5,mp-1213112,3.7548000000000004,3.34863262,0.0,pf-19766,"{68: 1, 13: 1, 32: 1, 8: 5}","[8, 13, 32, 68]",85131321681,Er1Al1Ge1O5
Eu3AlO5,mp-1019729,0.0,5.27443942,0.0,icsd-428736,"{63: 3, 13: 1, 8: 5}","[8, 13, 63]",85131633,Eu3Al1O5
Al2SiO5,mp-5065,5.4037999999999995,4.87833264,0.0,icsd-27771,"{13: 2, 14: 1, 8: 5}","[8, 13, 14]",85132141,Al2Si1O5
Sr3Al2Cl2O5,mp-559224,4.2155,1.51131579,0.0,icsd-68365,"{38: 3, 13: 2, 17: 2, 8: 5}","[8, 13, 17, 38]",85132172383,Sr3Al2Cl2O5
CsAl(SiO3)2,mp-562920,4.7668,0.53146602,0.0,icsd-15965,"{55: 1, 13: 1, 14: 2, 8: 6}","[8, 13, 14, 55]",86131142551,Cs1Al1Si2O6
Sr2NbAlO6,mp-1206057,2.8384000000000005,6.24469328,0.0,pf-31453,"{38: 2, 41: 1, 13: 1, 8: 6}","[8, 13, 38, 41]",86131382411,Sr2Nb1Al1O6
Sr2TaAlO6,mp-1205594,3.5770000000000004,7.08932972,0.0,pf-20978,"{38: 2, 73: 1, 13: 1, 8: 6}","[8, 13, 38, 73]",86131382731,Sr2Ta1Al1O6
Eu2TaAlO6,mp-1205947,0.33940000000000037,6.56622277,0.0,pf-26259,"{63: 2, 73: 1, 13: 1, 8: 6}","[8, 13, 63, 73]",86131632731,Eu2Ta1Al1O6
Sr3Al2O6,mp-3393,4.2291,1.81958053,0.0,icsd-71860,"{38: 3, 13: 2, 8: 6}","[8, 13, 38]",86132383,Sr3Al2O6
Ba3Al2O6,mp-1196869,3.8611999999999993,1.64161728,0.0,icsd-246227,"{56: 3, 13: 2, 8: 6}","[8, 13, 56]",86132563,Ba3Al2O6
Na3Nb34Al2O64,mp-578650,0.0,4.62665084,0.0,icsd-65161,"{11: 3, 41: 34, 13: 2, 8: 64}","[8, 11, 13, 41]",8641131324134,Na3Nb34Al2O64
Rb4Nb35Al2O70,mp-560765,0.0,4.2721283,0.0,icsd-75069,"{37: 4, 41: 35, 13: 2, 8: 70}","[8, 13, 37, 41]",8701323744135,Rb4Nb35Al2O70
KAlP2O7,mp-17031,5.2966999999999995,1.49323002,0.0,icsd-2888,"{19: 1, 13: 1, 15: 2, 8: 7}","[8, 13, 15, 19]",87131152191,K1Al1P2O7
AlVMoO7,mp-20014,2.0209,-0.1724467,0.0,icsd-280775,"{13: 1, 23: 1, 42: 1, 8: 7}","[8, 13, 23, 42]",87131231421,Al1V1Mo1O7
Cs3AlGe2O7,mp-561315,3.4471999999999996,0.85391554,0.0,icsd-412140,"{55: 3, 13: 1, 32: 2, 8: 7}","[8, 13, 32, 55]",87131322553,Cs3Al1Ge2O7
PrAlGe2O7,mp-1209642,3.575,2.10800177,0.0,pf-7858,"{59: 1, 13: 1, 32: 2, 8: 7}","[8, 13, 32, 59]",87131322591,Pr1Al1Ge2O7
NdAlGe2O7,mp-6016,3.6023000000000005,2.19035637,0.0,icsd-35144,"{60: 1, 13: 1, 32: 2, 8: 7}","[8, 13, 32, 60]",87131322601,Nd1Al1Ge2O7
RbAlAs2O7,mp-556630,3.0281000000000002,0.91257973,0.0,icsd-72508,"{37: 1, 13: 1, 33: 2, 8: 7}","[8, 13, 33, 37]",87131332371,Rb1Al1As2O7
K2Al2Sb2O7,mp-554959,3.5034,1.3170666,0.0,icsd-280310,"{19: 2, 13: 2, 51: 2, 8: 7}","[8, 13, 19, 51]",87132192512,K2Al2Sb2O7
Cs2Al2As2O7,mp-554206,3.6621999999999995,1.25699929,0.0,icsd-154363,"{55: 2, 13: 2, 33: 2, 8: 7}","[8, 13, 33, 55]",87132332552,Cs2Al2As2O7
Rb2Al2Sb2O7,mp-556275,3.5936000000000003,1.22218248,0.0,icsd-154360,"{37: 2, 13: 2, 51: 2, 8: 7}","[8, 13, 37, 51]",87132372512,Rb2Al2Sb2O7
Cs2Al2Sb2O7,mp-557359,3.6378000000000004,1.49172057,0.0,icsd-154361,"{55: 2, 13: 2, 51: 2, 8: 7}","[8, 13, 51, 55]",87132512552,Cs2Al2Sb2O7
BaAl2Sb2O7,mp-12885,3.4109000000000003,1.97737059,0.0,icsd-154362,"{56: 1, 13: 2, 51: 2, 8: 7}","[8, 13, 51, 56]",87132512561,Ba1Al2Sb2O7
CaAl4O7,mp-4867,3.9994,2.63380647,0.0,icsd-34487,"{20: 1, 13: 4, 8: 7}","[8, 13, 20]",87134201,Ca1Al4O7
SrAl4O7,mp-3788,3.7508,2.38988791,0.0,icsd-2817,"{38: 1, 13: 4, 8: 7}","[8, 13, 38]",87134381,Sr1Al4O7
Al4CdO7,mp-1190488,3.0642,2.24542929,0.0,icsd-196417,"{13: 4, 48: 1, 8: 7}","[8, 13, 48]",87134481,Al4Cd1O7
NaAlSi3O8,mp-721988,4.8862000000000005,5.90219186,0.0,icsd-77421,"{11: 1, 13: 1, 14: 3, 8: 8}","[8, 11, 13, 14]",88111131143,Na1Al1Si3O8
Cs2NaAl(PO4)2,mp-581862,4.457400000000001,0.53710471,0.0,icsd-92841,"{55: 2, 11: 1, 13: 1, 15: 2, 8: 8}","[8, 11, 13, 15, 55]",88111131152552,Cs2Na1Al1P2O8
NaAl(SO4)2,mp-1210191,5.7223,7.04876123,0.0,pf-2131,"{11: 1, 13: 1, 16: 2, 8: 8}","[8, 11, 13, 16]",88111131162,Na1Al1S2O8
Na3Al(AsO4)2,mp-1197957,3.3791,0.56157835,0.0,icsd-290301,"{11: 3, 13: 1, 33: 2, 8: 8}","[8, 11, 13, 33]",88113131332,Na3Al1As2O8
Na7Al3O8,mp-556168,2.7979000000000003,1.45124136,0.0,icsd-26405,"{11: 7, 13: 3, 8: 8}","[8, 11, 13]",88117133,Na7Al3O8
KAlSi3O8,mp-697670,4.924300000000001,0.77630389,0.0,icsd-83534,"{19: 1, 13: 1, 14: 3, 8: 8}","[8, 13, 14, 19]",88131143191,K1Al1Si3O8
K3Al(PO4)2,mp-1197607,4.5245999999999995,0.37100666,0.0,icsd-174351,"{19: 3, 13: 1, 15: 2, 8: 8}","[8, 13, 15, 19]",88131152193,K3Al1P2O8
RbAl(SO4)2,mp-1209303,5.4928,0.29306667,0.0,pf-21214,"{37: 1, 13: 1, 16: 2, 8: 8}","[8, 13, 16, 37]",88131162371,Rb1Al1S2O8
KAl(MoO4)2,mp-19352,3.8895,-0.43537742,0.0,icsd-28018,"{19: 1, 13: 1, 42: 2, 8: 8}","[8, 13, 19, 42]",88131191422,K1Al1Mo2O8
RbAl(MoO4)2,mp-1209248,3.8624,-0.50779813,0.0,pf-4353,"{37: 1, 13: 1, 42: 2, 8: 8}","[8, 13, 37, 42]",88131371422,Rb1Al1Mo2O8
Sr4NbAlO8,mp-558114,2.9538,1.96200005,0.0,icsd-419363,"{38: 4, 41: 1, 13: 1, 8: 8}","[8, 13, 38, 41]",88131384411,Sr4Nb1Al1O8
CsAl(MoO4)2,mp-505784,3.8773,-0.56097532,0.0,icsd-280947,"{55: 1, 13: 1, 42: 2, 8: 8}","[8, 13, 42, 55]",88131422551,Cs1Al1Mo2O8
AlTl(MoO4)2,mp-18733,3.8702,0.11197659,0.0,icsd-250339,"{13: 1, 81: 1, 42: 2, 8: 8}","[8, 13, 42, 81]",88131422811,Al1Tl1Mo2O8
BaAl2(SiO4)2,mp-6091,4.819699999999999,1.029435,0.0,icsd-40530,"{56: 1, 13: 2, 14: 2, 8: 8}","[8, 13, 14, 56]",88132142561,Ba1Al2Si2O8
Al2Si2PbO8,mp-1195073,4.2743,1.85553633,0.0,icsd-238735,"{13: 2, 14: 2, 82: 1, 8: 8}","[8, 13, 14, 82]",88132142821,Al2Si2Pb1O8
BaAl2(GeO4)2,mp-556178,3.8925,0.19214376,0.0,icsd-1282,"{56: 1, 13: 2, 32: 2, 8: 8}","[8, 13, 32, 56]",88132322561,Ba1Al2Ge2O8
NdAl3(PbO4)2,mp-21618,2.9856999999999996,2.61913834,0.0,icsd-406531,"{60: 1, 13: 3, 82: 2, 8: 8}","[8, 13, 60, 82]",88133601822,Nd1Al3Pb2O8
SmAl3(PbO4)2,mp-21567,2.9907,2.69693073,0.0,icsd-406532,"{62: 1, 13: 3, 82: 2, 8: 8}","[8, 13, 62, 82]",88133621822,Sm1Al3Pb2O8
Na5AlP2(O4F)2,mp-555488,4.6654,1.52310905,0.0,icsd-62645,"{11: 5, 13: 1, 15: 2, 8: 8, 9: 2}","[8, 9, 11, 13, 15]",8892115131152,Na5Al1P2O8F2