formula,material_id,band_gap,efermi,energy_above_hull,database_IDs,comp_atoms,sorted_keys_comp_atoms,comp_number,new_formula
K3Al4P2O8F9,mp-558240,5.456,0.84252131,0.0,icsd-79700,"{19: 3, 13: 4, 15: 2, 8: 8, 9: 9}","[8, 9, 13, 15, 19]",8899134152193,K3Al4P2O8F9
Al(PO3)3,mp-1019377,5.8176,-0.2712225,0.0,icsd-260723,"{13: 1, 15: 3, 8: 9}","[8, 13, 15]",89131153,Al1P3O9
Al(IO3)3,mp-555903,3.3465999999999996,2.93564919,0.0,icsd-152758,"{13: 1, 53: 3, 8: 9}","[8, 13, 53]",89131533,Al1I3O9
Cs2Al2P2O9,mp-560387,4.899699999999999,0.53963719,0.0,icsd-280275,"{55: 2, 13: 2, 15: 2, 8: 9}","[8, 13, 15, 55]",89132152552,Cs2Al2P2O9
Ca2Al2Sn2O9,mp-1196891,2.8373,3.44166436,0.0,icsd-260890,"{20: 2, 13: 2, 50: 2, 8: 9}","[8, 13, 20, 50]",89132202502,Ca2Al2Sn2O9
Al2Ga2Bi2O9,mp-1214864,2.7318,6.19836264,0.0,pf-1747,"{13: 2, 31: 2, 83: 2, 8: 9}","[8, 13, 31, 83]",89132312832,Al2Ga2Bi2O9
Nd4Al2O9,mp-561084,4.1667000000000005,1.81485583,0.0,icsd-249016,"{60: 4, 13: 2, 8: 9}","[8, 13, 60]",89132604,Nd4Al2O9
Sm4Al2O9,mp-1208969,4.1441,5.77953998,0.0,pf-11757,"{62: 4, 13: 2, 8: 9}","[8, 13, 62]",89132624,Sm4Al2O9
Al4Bi2O9,mp-23426,2.8001999999999994,4.48473545,0.0,icsd-251938,"{13: 4, 83: 2, 8: 9}","[8, 13, 83]",89134832,Al4Bi2O9
Ba2AlCu2F11,mp-561318,0.5741999999999999,0.62386866,0.0,icsd-50483,"{56: 2, 13: 1, 29: 2, 9: 11}","[9, 13, 29, 56]",911131292562,Ba2Al1Cu2F11
BaAlGeF,mp-1078453,0.0,4.11265262,0.0,icsd-193687,"{56: 1, 13: 1, 32: 1, 9: 1}","[9, 13, 32, 56]",91131321561,Ba1Al1Ge1F1
K2NaAl3F12,mp-560176,6.8339,-1.59378283,0.0,icsd-40178,"{19: 2, 11: 1, 13: 3, 9: 12}","[9, 11, 13, 19]",912111133192,K2Na1Al3F12
Rb2NaAl3F12,mp-542451,7.1302,-1.74568019,0.0,icsd-40177,"{37: 2, 11: 1, 13: 3, 9: 12}","[9, 11, 13, 37]",912111133372,Rb2Na1Al3F12
Cs2NaAl3F12,mp-12309,6.9174999999999995,-1.33883745,0.0,icsd-15784,"{55: 2, 11: 1, 13: 3, 9: 12}","[9, 11, 13, 55]",912111133552,Cs2Na1Al3F12
Ba3Al2F12,mp-3361,6.7238,6.24062895,0.0,icsd-413546,"{56: 3, 13: 2, 9: 12}","[9, 13, 56]",912132563,Ba3Al2F12
Al2Pb3F12,mp-14941,5.1837,1.16084252,0.0,icsd-74861,"{13: 2, 82: 3, 9: 12}","[9, 13, 82]",912132823,Al2Pb3F12
Na5Al3F14,mp-4752,6.548500000000001,-1.19651299,0.0,icsd-25618,"{11: 5, 13: 3, 9: 14}","[9, 11, 13]",914115133,Na5Al3F14
Ba2Na2SrAl4F20,mp-1204071,7.1081,-1.3108239,0.0,icsd-237134,"{56: 2, 11: 2, 38: 1, 13: 4, 9: 20}","[9, 11, 13, 38, 56]",920112134381562,Ba2Na2Sr1Al4F20
Rb2NaAl6F21,mp-560570,7.004300000000001,-1.72409301,0.0,icsd-68555,"{37: 2, 11: 1, 13: 6, 9: 21}","[9, 11, 13, 37]",921111136372,Rb2Na1Al6F21
AlF3,mp-468,7.6012,-1.03805805,0.0,icsd-252638,"{13: 1, 9: 3}","[9, 13]",93131,Al1F3
KAlF4,mp-561424,6.9087,-1.90604398,0.0,icsd-60525,"{19: 1, 13: 1, 9: 4}","[9, 13, 19]",94131191,K1Al1F4
RbAlF4,mp-13997,6.8327,-1.74928887,0.0,icsd-26389,"{37: 1, 13: 1, 9: 4}","[9, 13, 37]",94131371,Rb1Al1F4
CsAlF4,mp-554899,6.977,-1.53515506,0.0,icsd-10012,"{55: 1, 13: 1, 9: 4}","[9, 13, 55]",94131551,Cs1Al1F4
AlTlF4,mp-3751,4.433300000000001,0.9424893,0.0,icsd-202457,"{13: 1, 81: 1, 9: 4}","[9, 13, 81]",94131811,Al1Tl1F4
K2AlF5,mp-9486,6.3239,-2.45858762,0.0,icsd-81864,"{19: 2, 13: 1, 9: 5}","[9, 13, 19]",95131192,K2Al1F5
SrAlF5,mp-1200608,7.1379,-0.79130804,0.0,icsd-50474,"{38: 1, 13: 1, 9: 5}","[9, 13, 38]",95131381,Sr1Al1F5
BaAlF5,mp-4376,7.2887,-1.0577164,0.0,icsd-37033,"{56: 1, 13: 1, 9: 5}","[9, 13, 56]",95131561,Ba1Al1F5
EuAlF5,mp-1202507,0.7191000000000001,5.34803678,0.0,icsd-412020,"{63: 1, 13: 1, 9: 5}","[9, 13, 63]",95131631,Eu1Al1F5
K2NaAlF6,mp-6586,6.8580000000000005,-1.67955743,0.0,icsd-6027,"{19: 2, 11: 1, 13: 1, 9: 6}","[9, 11, 13, 19]",96111131192,K2Na1Al1F6
NaCaAlF6,mp-17944,7.1135,-1.79901491,0.0,icsd-80542,"{11: 1, 20: 1, 13: 1, 9: 6}","[9, 11, 13, 20]",96111131201,Na1Ca1Al1F6
Rb2NaAlF6,mp-1079583,6.791,-1.65596866,0.0,icsd-290318,"{37: 2, 11: 1, 13: 1, 9: 6}","[9, 11, 13, 37]",96111131372,Rb2Na1Al1F6
NaSrAlF6,mp-14722,6.9765999999999995,-1.38144465,0.0,icsd-69433,"{11: 1, 38: 1, 13: 1, 9: 6}","[9, 11, 13, 38]",96111131381,Na1Sr1Al1F6
NaAlCdF6,mp-555048,4.608499999999999,-1.80000698,0.0,icsd-80559,"{11: 1, 13: 1, 48: 1, 9: 6}","[9, 11, 13, 48]",96111131481,Na1Al1Cd1F6
Cs2NaAlF6,mp-6528,6.697,-1.33450349,0.0,icsd-93458,"{55: 2, 11: 1, 13: 1, 9: 6}","[9, 11, 13, 55]",96111131552,Cs2Na1Al1F6
BaNaAlF6,mp-15515,6.981,-1.59541585,0.0,icsd-402604,"{56: 1, 11: 1, 13: 1, 9: 6}","[9, 11, 13, 56]",96111131561,Ba1Na1Al1F6
Na3AlF6,mp-3416,6.7197000000000005,-1.58874473,0.0,icsd-74205,"{11: 3, 13: 1, 9: 6}","[9, 11, 13]",96113131,Na3Al1F6
KRb2AlF6,mp-1113768,6.4284,-1.97845385,0.0,pf-29339,"{19: 1, 37: 2, 13: 1, 9: 6}","[9, 13, 19, 37]",96131191372,K1Rb2Al1F6
K3AlF6,mp-1201513,6.431000000000001,4.30682275,0.0,icsd-262076,"{19: 3, 13: 1, 9: 6}","[9, 13, 19]",96131193,K3Al1F6
RbAlCuF6,mp-1209376,0.0,0.37319225,0.0,pf-35317,"{37: 1, 13: 1, 29: 1, 9: 6}","[9, 13, 29, 37]",96131291371,Rb1Al1Cu1F6
CsAlCuF6,mp-510370,0.0,0.87093788,0.0,icsd-240292,"{55: 1, 13: 1, 29: 1, 9: 6}","[9, 13, 29, 55]",96131291551,Cs1Al1Cu1F6
CsAlZnF6,mp-1213699,5.4077,-0.85324671,0.0,pf-14381,"{55: 1, 13: 1, 30: 1, 9: 6}","[9, 13, 30, 55]",96131301551,Cs1Al1Zn1F6
BaCaAlF7,mp-18065,6.7993999999999994,-0.8022743,0.0,icsd-281208,"{56: 1, 20: 1, 13: 1, 9: 7}","[9, 13, 20, 56]",97131201561,Ba1Ca1Al1F7
Ca2AlPbF9,mp-1193801,5.777500000000001,0.12656903,0.0,icsd-180336,"{20: 2, 13: 1, 82: 1, 9: 9}","[9, 13, 20, 82]",99131202821,Ca2Al1Pb1F9
KCaAl2F9,mp-557743,7.1437,-1.55715586,0.0,icsd-72460,"{19: 1, 20: 1, 13: 2, 9: 9}","[9, 13, 19, 20]",99132191201,K1Ca1Al2F9