formula,material_id,band_gap,efermi,energy_above_hull,database_IDs,comp_atoms,sorted_keys_comp_atoms,comp_number,new_formula
KAlSe2,mp-1211743,2.4189,1.10099387,0.0,pf-20257,"{19: 1, 13: 1, 34: 2}","[13, 19, 34]",131191342,K1Al1Se2
KAlBr4,mp-1211750,4.2143999999999995,2.65897593,0.0,pf-23617,"{19: 1, 13: 1, 35: 4}","[13, 19, 35]",131191354,K1Al1Br4
KAlSb4,mp-29373,0.24520000000000053,4.15936196,0.0,icsd-300157,"{19: 1, 13: 1, 51: 4}","[13, 19, 51]",131191514,K1Al1Sb4
KAlTe2,mp-18347,1.9596000000000005,2.17491167,0.0,icsd-411171,"{19: 1, 13: 1, 52: 2}","[13, 19, 52]",131191522,K1Al1Te2
K3AlAs2,mp-541682,0.4517,1.62573836,0.0,icsd-300121,"{19: 3, 13: 1, 33: 2}","[13, 19, 33]",131193332,K3Al1As2
K3AlSe3,mp-18217,2.4697,0.4700907,0.0,icsd-300172,"{19: 3, 13: 1, 34: 3}","[13, 19, 34]",131193343,K3Al1Se3
Cs6K3AlSb4,mp-17120,0.6537000000000002,2.36812972,0.0,icsd-300152,"{55: 6, 19: 3, 13: 1, 51: 4}","[13, 19, 51, 55]",131193514556,Cs6K3Al1Sb4
K3AlTe3,mp-18378,2.0332,1.28009321,0.0,icsd-300168,"{19: 3, 13: 1, 52: 3}","[13, 19, 52]",131193523,K3Al1Te3
Ca11AlSb9,mp-1214215,1.1765999999999996,5.54690766,0.0,pf-5447,"{20: 11, 13: 1, 51: 9}","[13, 20, 51]",1312011519,Ca11Al1Sb9
Ca14AlSb11,mp-567799,0.5897000000000006,4.92949548,0.0,icsd-33266,"{20: 14, 13: 1, 51: 11}","[13, 20, 51]",13120145111,Ca14Al1Sb11
CaAlPd,mp-571039,0.0,4.73116721,0.0,icsd-370036,"{20: 1, 13: 1, 46: 1}","[13, 20, 46]",131201461,Ca1Al1Pd1
CaAlPt,mp-1102631,0.0,5.44459777,0.0,icsd-261896,"{20: 1, 13: 1, 78: 1}","[13, 20, 78]",131201781,Ca1Al1Pt1
CaAlAu,mp-568424,0.0,4.99413808,0.0,icsd-370015,"{20: 1, 13: 1, 79: 1}","[13, 20, 79]",131201791,Ca1Al1Au1
Ca2AlPd2,mp-1078304,0.0,4.27474993,0.0,icsd-428673,"{20: 2, 13: 1, 46: 2}","[13, 20, 46]",131202462,Ca2Al1Pd2
Ca2AlPt2,mp-1078362,0.0,5.00351242,0.0,icsd-428674,"{20: 2, 13: 1, 78: 2}","[13, 20, 78]",131202782,Ca2Al1Pt2
Ca3AlAs3,mp-17186,0.7300999999999997,3.71144746,0.0,icsd-606012,"{20: 3, 13: 1, 33: 3}","[13, 20, 33]",131203333,Ca3Al1As3
Ca3AlSb3,mp-18300,0.25340000000000007,4.72748469,0.0,icsd-36363,"{20: 3, 13: 1, 51: 3}","[13, 20, 51]",131203513,Ca3Al1Sb3
ScAl,mp-331,0.0,5.83645083,0.0,icsd-609299,"{21: 1, 13: 1}","[13, 21]",131211,Sc1Al1
ScAlCu2,mp-16497,0.0,6.37042392,0.0,icsd-57709,"{21: 1, 13: 1, 29: 2}","[13, 21, 29]",131211292,Sc1Al1Cu2
ScAlGe,mp-1077599,0.0,6.71006814,0.0,icsd-608009,"{21: 1, 13: 1, 32: 1}","[13, 21, 32]",131211321,Sc1Al1Ge1
ScAlPd2,mp-16524,0.0,6.22087306,0.0,icsd-58120,"{21: 1, 13: 1, 46: 2}","[13, 21, 46]",131211462,Sc1Al1Pd2
ScAlAg2,mp-31169,0.0,4.89151498,0.0,icsd-57333,"{21: 1, 13: 1, 47: 2}","[13, 21, 47]",131211472,Sc1Al1Ag2
ScAlAu,mp-1105210,0.0,5.99086194,0.0,icsd-430622,"{21: 1, 13: 1, 79: 1}","[13, 21, 79]",131211791,Sc1Al1Au1
ScAlAu2,mp-10873,0.0,6.15770959,0.0,icsd-57505,"{21: 1, 13: 1, 79: 2}","[13, 21, 79]",131211792,Sc1Al1Au2
Sc2Al,mp-11220,0.0,4.79259376,0.0,icsd-183217,"{21: 2, 13: 1}","[13, 21]",131212,Sc2Al1
TiAl,mp-1953,0.0,6.80837283,0.0,icsd-604461,"{22: 1, 13: 1}","[13, 22]",131221,Ti1Al1
TiAlFeCo,mp-998980,0.12460000000000004,7.22050147,0.0,icsd-191657,"{22: 1, 13: 1, 26: 1, 27: 1}","[13, 22, 26, 27]",131221261271,Ti1Al1Fe1Co1
TiAlFe2,mp-31187,0.0,6.9459049,0.0,icsd-57827,"{22: 1, 13: 1, 26: 2}","[13, 22, 26]",131221262,Ti1Al1Fe2
TiAlCo2,mp-5407,0.0,7.10381391,0.0,icsd-606682,"{22: 1, 13: 1, 27: 2}","[13, 22, 27]",131221272,Ti1Al1Co2
TiAlCu2,mp-4771,0.0,7.92044547,0.0,icsd-656061,"{22: 1, 13: 1, 29: 2}","[13, 22, 29]",131221292,Ti1Al1Cu2
TiAlPt,mp-570713,0.0,7.92171433,0.0,icsd-163350,"{22: 1, 13: 1, 78: 1}","[13, 22, 78]",131221781,Ti1Al1Pt1
TiAlAu,mp-16481,0.0,7.07426997,0.0,icsd-57506,"{22: 1, 13: 1, 79: 1}","[13, 22, 79]",131221791,Ti1Al1Au1
Ti3Al,mp-1823,0.0,6.26997544,0.0,icsd-609523,"{22: 3, 13: 1}","[13, 22]",131223,Ti3Al1
MnAl12,mp-1104165,0.0,7.96684698,0.0,icsd-608472,"{25: 1, 13: 12}","[13, 25]",1312251,Mn1Al12
U3(Al3Fe)4,mp-1208103,0.0,8.84148268,0.0,pf-9384,"{92: 3, 13: 12, 26: 4}","[13, 26, 92]",1312264923,U3Al12Fe4
Mn2AlV,mp-10895,0.0,7.08921185,0.0,icsd-181805,"{25: 2, 13: 1, 23: 1}","[13, 23, 25]",131231252,Mn2Al1V1
AlVFe2,mp-5778,0.0,7.29883611,0.0,icsd-57832,"{13: 1, 23: 1, 26: 2}","[13, 23, 26]",131231262,Al1V1Fe2
AlVCo2,mp-4955,0.0,7.01778873,0.0,icsd-57643,"{13: 1, 23: 1, 27: 2}","[13, 23, 27]",131231272,Al1V1Co2
AlV3,mp-1387,0.0,6.47361175,0.0,icsd-609619,"{13: 1, 23: 3}","[13, 23]",131233,Al1V3
Y3(Al3Os)4,mp-1207814,0.0,6.95808675,0.0,pf-23200,"{39: 3, 13: 12, 76: 4}","[13, 39, 76]",1312393764,Y3Al12Os4
Al12Tc,mp-16719,0.0,8.20056414,0.0,icsd-609479,"{13: 12, 43: 1}","[13, 43]",1312431,Al12Tc1
Ce3(Al3Ru)4,mp-31079,0.0,8.00961396,0.0,icsd-99134,"{58: 3, 13: 12, 44: 4}","[13, 44, 58]",1312444583,Ce3Al12Ru4
Pr3(Al3Ru)4,mp-1209381,0.0,6.91889584,0.0,pf-3456,"{59: 3, 13: 12, 44: 4}","[13, 44, 59]",1312444593,Pr3Al12Ru4
Nd3(Al3Ru)4,mp-1209944,0.0,6.88578559,0.0,pf-13957,"{60: 3, 13: 12, 44: 4}","[13, 44, 60]",1312444603,Nd3Al12Ru4
Sm3(Al3Ru)4,mp-1208914,0.0,6.90869195,0.0,pf-33559,"{62: 3, 13: 12, 44: 4}","[13, 44, 62]",1312444623,Sm3Al12Ru4
Tb3(Al3Ru)4,mp-1195573,0.0,6.85324213,0.0,icsd-291336,"{65: 3, 13: 12, 44: 4}","[13, 44, 65]",1312444653,Tb3Al12Ru4
Dy3(Al3Ru)4,mp-1195540,0.0,6.92667964,0.0,icsd-252218,"{66: 3, 13: 12, 44: 4}","[13, 44, 66]",1312444663,Dy3Al12Ru4
Ho3(Al3Ru)4,mp-1212260,0.0,6.83819034,0.0,pf-33631,"{67: 3, 13: 12, 44: 4}","[13, 44, 67]",1312444673,Ho3Al12Ru4
Er3(Al3Ru)4,mp-1212925,0.0,6.88681151,0.0,pf-2217,"{68: 3, 13: 12, 44: 4}","[13, 44, 68]",1312444683,Er3Al12Ru4
Tm3(Al3Ru)4,mp-1208023,0.0,6.86749024,0.0,pf-12679,"{69: 3, 13: 12, 44: 4}","[13, 44, 69]",1312444693,Tm3Al12Ru4
MnAl,mp-771,0.0,7.62008316,0.0,icsd-608456,"{25: 1, 13: 1}","[13, 25]",131251,Mn1Al1
MnAlFe2,mp-31185,0.0,6.98928397,0.0,icsd-57806,"{25: 1, 13: 1, 26: 2}","[13, 25, 26]",131251262,Mn1Al1Fe2
MnAlCo2,mp-3623,0.0,6.61087155,0.0,icsd-606614,"{25: 1, 13: 1, 27: 2}","[13, 25, 27]",131251272,Mn1Al1Co2
MnAlGe,mp-20757,0.0,7.30454664,0.0,icsd-607972,"{25: 1, 13: 1, 32: 1}","[13, 25, 32]",131251321,Mn1Al1Ge1
MnAlRh2,mp-10894,0.0,6.91259405,0.0,icsd-57986,"{25: 1, 13: 1, 45: 2}","[13, 25, 45]",131251452,Mn1Al1Rh2
MnAlAu2,mp-5491,0.0,6.50065343,0.0,icsd-606047,"{25: 1, 13: 1, 79: 2}","[13, 25, 79]",131251792,Mn1Al1Au2
Ce3(Al3Os)4,mp-1213926,0.0,8.05789209,0.0,pf-33708,"{58: 3, 13: 12, 76: 4}","[13, 58, 76]",1312583764,Ce3Al12Os4
Pr3(Al3Os)4,mp-1209374,0.0,6.94499108,0.0,pf-2297,"{59: 3, 13: 12, 76: 4}","[13, 59, 76]",1312593764,Pr3Al12Os4
Nd3(Al3Os)4,mp-1209972,0.0,6.86212516,0.0,pf-24419,"{60: 3, 13: 12, 76: 4}","[13, 60, 76]",1312603764,Nd3Al12Os4
AlFe,mp-2658,0.0,8.18143475,0.0,icsd-165165,"{13: 1, 26: 1}","[13, 26]",131261,Al1Fe1
AlFeCo2,mp-10884,0.0,6.60723177,0.0,icsd-57607,"{13: 1, 26: 1, 27: 2}","[13, 26, 27]",131261272,Al1Fe1Co2
Sm3(Al3Os)4,mp-1208935,0.0,6.85277579,0.0,pf-3991,"{62: 3, 13: 12, 76: 4}","[13, 62, 76]",1312623764,Sm3Al12Os4
Tb3(Al3Os)4,mp-1208548,0.0,6.9355315,0.0,pf-14508,"{65: 3, 13: 12, 76: 4}","[13, 65, 76]",1312653764,Tb3Al12Os4
Dy3(Al3Os)4,mp-1213200,0.0,6.9257532,0.0,pf-25025,"{66: 3, 13: 12, 76: 4}","[13, 66, 76]",1312663764,Dy3Al12Os4
Ho3(Al3Os)4,mp-1212256,0.0,6.89428912,0.0,pf-35523,"{67: 3, 13: 12, 76: 4}","[13, 67, 76]",1312673764,Ho3Al12Os4
Er3(Al3Os)4,mp-1212920,0.0,6.92661746,0.0,pf-4081,"{68: 3, 13: 12, 76: 4}","[13, 68, 76]",1312683764,Er3Al12Os4
Tm3(Al3Os)4,mp-1207816,0.0,6.91857794,0.0,pf-14590,"{69: 3, 13: 12, 76: 4}","[13, 69, 76]",1312693764,Tm3Al12Os4
AlCo,mp-284,0.0,8.41814647,0.0,icsd-606533,"{13: 1, 27: 1}","[13, 27]",131271,Al1Co1
CeAlCo,mp-571542,0.0,7.6247494,0.0,icsd-20632,"{58: 1, 13: 1, 27: 1}","[13, 27, 58]",131271581,Ce1Al1Co1
ThAlCo,mp-1206017,0.0,7.50895694,0.0,pf-589,"{90: 1, 13: 1, 27: 1}","[13, 27, 90]",131271901,Th1Al1Co1
ZrAlCo2,mp-3909,0.0,6.03449555,0.0,icsd-606738,"{40: 1, 13: 1, 27: 2}","[13, 27, 40]",131272401,Zr1Al1Co2
NbAlCo2,mp-5149,0.0,6.66127638,0.0,icsd-606622,"{41: 1, 13: 1, 27: 2}","[13, 27, 41]",131272411,Nb1Al1Co2
Gd2AlCo2,mp-637222,0.0,4.54648699,0.0,icsd-412543,"{64: 2, 13: 1, 27: 2}","[13, 27, 64]",131272642,Gd2Al1Co2
Tb2AlCo2,mp-13432,0.0,4.76581855,0.0,icsd-107403,"{65: 2, 13: 1, 27: 2}","[13, 27, 65]",131272652,Tb2Al1Co2
Dy2AlCo2,mp-13431,0.0,4.73077246,0.0,icsd-107402,"{66: 2, 13: 1, 27: 2}","[13, 27, 66]",131272662,Dy2Al1Co2
HfAlCo2,mp-5221,0.0,6.3576831,0.0,icsd-606590,"{72: 1, 13: 1, 27: 2}","[13, 27, 72]",131272721,Hf1Al1Co2
TaAlCo2,mp-3340,0.0,6.98593221,0.0,icsd-57634,"{73: 1, 13: 1, 27: 2}","[13, 27, 73]",131272731,Ta1Al1Co2
Al12Re,mp-1648,0.0,8.10268764,0.0,icsd-58150,"{13: 12, 75: 1}","[13, 75]",1312751,Al12Re1
AlCu,mp-2500,0.0,8.4026492,0.0,icsd-40332,"{13: 1, 29: 1}","[13, 29]",131291,Al1Cu1
AlCuSe2,mp-8016,0.8921999999999999,3.87614444,0.0,icsd-28734,"{13: 1, 29: 1, 34: 2}","[13, 29, 34]",131291342,Al1Cu1Se2
AlCuBr4,mp-1102536,2.1451000000000002,1.26599256,0.0,icsd-165608,"{13: 1, 29: 1, 35: 4}","[13, 29, 35]",131291354,Al1Cu1Br4
YAlCu,mp-1079361,0.0,5.55336901,0.0,icsd-607186,"{39: 1, 13: 1, 29: 1}","[13, 29, 39]",131291391,Y1Al1Cu1
AlCuTe2,mp-8017,1.0186000000000002,4.91045025,0.0,icsd-28735,"{13: 1, 29: 1, 52: 2}","[13, 29, 52]",131291522,Al1Cu1Te2
CeAlCu,mp-1079868,0.0,7.61091686,0.0,icsd-606422,"{58: 1, 13: 1, 29: 1}","[13, 29, 58]",131291581,Ce1Al1Cu1
PrAlCu,mp-1078692,0.0,5.40931581,0.0,icsd-607054,"{59: 1, 13: 1, 29: 1}","[13, 29, 59]",131291591,Pr1Al1Cu1
NdAlCu,mp-1080560,0.0,5.30621965,0.0,icsd-607037,"{60: 1, 13: 1, 29: 1}","[13, 29, 60]",131291601,Nd1Al1Cu1
SmAlCu,mp-979972,0.0,5.25108167,0.0,icsd-607110,"{62: 1, 13: 1, 29: 1}","[13, 29, 62]",131291621,Sm1Al1Cu1
GdAlCu,mp-1080612,0.0,5.2354114,0.0,icsd-602087,"{64: 1, 13: 1, 29: 1}","[13, 29, 64]",131291641,Gd1Al1Cu1
TbAlCu,mp-1079357,0.0,5.55229992,0.0,icsd-607130,"{65: 1, 13: 1, 29: 1}","[13, 29, 65]",131291651,Tb1Al1Cu1
DyAlCu,mp-1078857,0.0,5.43574953,0.0,icsd-606896,"{66: 1, 13: 1, 29: 1}","[13, 29, 66]",131291661,Dy1Al1Cu1
HoAlCu,mp-1078489,0.0,5.54276906,0.0,icsd-606962,"{67: 1, 13: 1, 29: 1}","[13, 29, 67]",131291671,Ho1Al1Cu1
ErAlCu,mp-1078592,0.0,5.52448544,0.0,icsd-606923,"{68: 1, 13: 1, 29: 1}","[13, 29, 68]",131291681,Er1Al1Cu1
TmAlCu,mp-865402,0.0,5.59745197,0.0,icsd-607167,"{69: 1, 13: 1, 29: 1}","[13, 29, 69]",131291691,Tm1Al1Cu1
AlCuPt2,mp-12550,0.0,7.77803959,0.0,icsd-107788,"{13: 1, 29: 1, 78: 2}","[13, 29, 78]",131291782,Al1Cu1Pt2
HfAlCu2,mp-10887,0.0,7.52937969,0.0,icsd-57682,"{72: 1, 13: 1, 29: 2}","[13, 29, 72]",131292721,Hf1Al1Cu2
AlCu3,mp-12802,0.0,7.83954483,0.0,icsd-151216,"{13: 1, 29: 3}","[13, 29]",131293,Al1Cu3
YAlZn,mp-1071862,0.0,4.15507602,0.0,icsd-609667,"{39: 1, 13: 1, 30: 1}","[13, 30, 39]",131301391,Y1Al1Zn1
DyAlZn,mp-1018674,0.0,4.06466341,0.0,icsd-607343,"{66: 1, 13: 1, 30: 1}","[13, 30, 66]",131301661,Dy1Al1Zn1
ErAlZn,mp-1072798,0.0,4.17445821,0.0,icsd-607444,"{68: 1, 13: 1, 30: 1}","[13, 30, 68]",131301681,Er1Al1Zn1
AlH3,mp-23933,2.1976999999999998,1.01155368,0.0,icsd-608031,"{13: 1, 1: 3}","[1, 13]",13131,Al1H3
SrAlGe,mp-13311,0.0,4.20906862,0.0,icsd-166379,"{38: 1, 13: 1, 32: 1}","[13, 32, 38]",131321381,Sr1Al1Ge1
YAlGe,mp-29736,0.0,5.99017774,0.0,icsd-76295,"{39: 1, 13: 1, 32: 1}","[13, 32, 39]",131321391,Y1Al1Ge1
BaAlGe,mp-13272,0.0,3.76655244,0.0,icsd-417662,"{56: 1, 13: 1, 32: 1}","[13, 32, 56]",131321561,Ba1Al1Ge1
LaAlGe,mp-11511,0.0,7.67717544,0.0,icsd-105149,"{57: 1, 13: 1, 32: 1}","[13, 32, 57]",131321571,La1Al1Ge1
CeAlGe,mp-1206928,0.0,6.57063603,0.0,pf-19390,"{58: 1, 13: 1, 32: 1}","[13, 32, 58]",131321581,Ce1Al1Ge1
PrAlGe,mp-10450,0.0,5.80549886,0.0,icsd-90160,"{59: 1, 13: 1, 32: 1}","[13, 32, 59]",131321591,Pr1Al1Ge1
NdAlGe,mp-1206852,0.21060000000000034,5.12215448,0.0,pf-2786,"{60: 1, 13: 1, 32: 1}","[13, 32, 60]",131321601,Nd1Al1Ge1
SmAlGe,mp-3077,0.0,5.76362689,0.0,icsd-151718,"{62: 1, 13: 1, 32: 1}","[13, 32, 62]",131321621,Sm1Al1Ge1
EuAlGe,mp-1206175,0.0,4.33903191,0.0,pf-23812,"{63: 1, 13: 1, 32: 1}","[13, 32, 63]",131321631,Eu1Al1Ge1
GdAlGe,mp-1077056,0.0,5.77226502,0.0,icsd-607864,"{64: 1, 13: 1, 32: 1}","[13, 32, 64]",131321641,Gd1Al1Ge1
TbAlGe,mp-1206233,0.0,5.89645919,0.0,pf-16047,"{65: 1, 13: 1, 32: 1}","[13, 32, 65]",131321651,Tb1Al1Ge1
DyAlGe,mp-1076977,0.0,5.92476744,0.0,icsd-607304,"{66: 1, 13: 1, 32: 1}","[13, 32, 66]",131321661,Dy1Al1Ge1
HoAlGe,mp-1077785,0.0,5.87111038,0.0,icsd-607952,"{67: 1, 13: 1, 32: 1}","[13, 32, 67]",131321671,Ho1Al1Ge1
ErAlGe,mp-1024985,0.0,5.96420077,0.0,icsd-607405,"{68: 1, 13: 1, 32: 1}","[13, 32, 68]",131321681,Er1Al1Ge1
TmAlGe,mp-1072024,0.0,5.83593681,0.0,icsd-608020,"{69: 1, 13: 1, 32: 1}","[13, 32, 69]",131321691,Tm1Al1Ge1
LuAlGe,mp-1025105,0.0,6.01221012,0.0,icsd-607970,"{71: 1, 13: 1, 32: 1}","[13, 32, 71]",131321711,Lu1Al1Ge1
Al13Fe4,mp-1202900,0.0,7.81146211,0.0,icsd-290494,"{13: 13, 26: 4}","[13, 26]",1313264,Al13Fe4
Ce2AlGe6,mp-1105912,0.0,7.25374353,0.0,icsd-606465,"{58: 2, 13: 1, 32: 6}","[13, 32, 58]",131326582,Ce2Al1Ge6
Gd2AlGe6,mp-1190055,0.0,5.35401285,0.0,icsd-607866,"{64: 2, 13: 1, 32: 6}","[13, 32, 64]",131326642,Gd2Al1Ge6
AlAs,mp-2172,1.5036999999999998,3.58128419,0.0,icsd-185081,"{13: 1, 33: 1}","[13, 33]",131331,Al1As1
AlAsPt5,mp-1025306,0.0,7.68686205,0.0,pf-18398,"{13: 1, 33: 1, 78: 5}","[13, 33, 78]",131331785,Al1As1Pt5
Cs3AlAs2,mp-582723,0.7389000000000001,1.99005803,0.0,icsd-300113,"{55: 3, 13: 1, 33: 2}","[13, 33, 55]",131332553,Cs3Al1As2
Sr3AlAs3,mp-1192533,0.9824000000000002,2.67577861,0.0,icsd-430165,"{38: 3, 13: 1, 33: 3}","[13, 33, 38]",131333383,Sr3Al1As3
Ba3AlAs3,mp-1192376,0.6837999999999997,2.55536507,0.0,icsd-430167,"{56: 3, 13: 1, 33: 3}","[13, 33, 56]",131333563,Ba3Al1As3
AlAgSe2,mp-14091,1.1351999999999998,2.18218391,0.0,icsd-604706,"{13: 1, 47: 1, 34: 2}","[13, 34, 47]",131342471,Al1Ag1Se2
AlTlSe2,mp-863762,1.7889999999999997,2.67023972,0.0,icsd-609323,"{13: 1, 81: 1, 34: 2}","[13, 34, 81]",131342811,Al1Tl1Se2
Al13Ru4,mp-17880,0.0,8.04999203,0.0,icsd-188006,"{13: 13, 44: 4}","[13, 44]",1313444,Al13Ru4
Al(Ag3Se2)3,mp-1214959,0.0,2.21505252,0.0,pf-30479,"{13: 1, 47: 9, 34: 6}","[13, 34, 47]",131346479,Al1Ag9Se6
AlBr3,mp-23288,4.0992,-1.98872775,0.0,icsd-39768,"{13: 1, 35: 3}","[13, 35]",131353,Al1Br3
RbAlBr4,mp-1209467,4.0935,2.57207017,0.0,pf-2681,"{37: 1, 13: 1, 35: 4}","[13, 35, 37]",131354371,Rb1Al1Br4
AlInBr4,mp-1214853,3.5627,3.17965656,0.0,pf-34115,"{13: 1, 49: 1, 35: 4}","[13, 35, 49]",131354491,Al1In1Br4
CsAlBr4,mp-29103,4.2876,-1.4996119,0.0,icsd-83435,"{55: 1, 13: 1, 35: 4}","[13, 35, 55]",131354551,Cs1Al1Br4
AlTlBr4,mp-567878,4.0998,-0.96628492,0.0,icsd-419829,"{13: 1, 81: 1, 35: 4}","[13, 35, 81]",131354811,Al1Tl1Br4
NbAlBr8,mp-1105368,1.5329,-1.31661452,0.0,icsd-430984,"{41: 1, 13: 1, 35: 8}","[13, 35, 41]",131358411,Nb1Al1Br8
Al13Os4,mp-567929,0.0,8.17096161,0.0,icsd-58110,"{13: 13, 76: 4}","[13, 76]",1313764,Al13Os4
Rb6AlSb3,mp-9698,0.2825,2.00238664,0.0,icsd-300217,"{37: 6, 13: 1, 51: 3}","[13, 37, 51]",131376513,Rb6Al1Sb3
Sr3AlSb3,mp-17667,0.5371000000000006,3.6357493,0.0,icsd-52652,"{38: 3, 13: 1, 51: 3}","[13, 38, 51]",131383513,Sr3Al1Sb3
YAl,mp-11228,0.0,4.33870841,0.0,icsd-247101,"{39: 1, 13: 1}","[13, 39]",131391,Y1Al1
YAlPd,mp-1095464,0.0,5.44615732,0.0,icsd-609063,"{39: 1, 13: 1, 46: 1}","[13, 39, 46]",131391461,Y1Al1Pd1
YAlPd2,mp-1078242,0.0,5.40988745,0.0,icsd-430934,"{39: 1, 13: 1, 46: 2}","[13, 39, 46]",131391462,Y1Al1Pd2
YAlPt,mp-1095478,0.0,6.07493397,0.0,icsd-609165,"{39: 1, 13: 1, 78: 1}","[13, 39, 78]",131391781,Y1Al1Pt1
YAlAu,mp-1102840,0.0,5.40276453,0.0,icsd-602610,"{39: 1, 13: 1, 79: 1}","[13, 39, 79]",131391791,Y1Al1Au1
Y2Al,mp-11230,0.0,4.10695126,0.0,icsd-58211,"{39: 2, 13: 1}","[13, 39]",131392,Y2Al1
ZrAlPd2,mp-541047,0.0,5.87335501,0.0,icsd-58122,"{40: 1, 13: 1, 46: 2}","[13, 40, 46]",131401462,Zr1Al1Pd2
ZrAlPt,mp-1080760,0.0,6.66110159,0.0,icsd-609169,"{40: 1, 13: 1, 78: 1}","[13, 40, 78]",131401781,Zr1Al1Pt1
Zr3Al,mp-1471,0.0,5.23592982,0.0,icsd-150660,"{40: 3, 13: 1}","[13, 40]",131403,Zr3Al1
Zr5AlSn3,mp-510321,0.0,6.62438247,0.0,icsd-106250,"{40: 5, 13: 1, 50: 3}","[13, 40, 50]",131405503,Zr5Al1Sn3
Zr5AlSb3,mp-1106245,0.0,7.28575718,0.0,icsd-609294,"{40: 5, 13: 1, 51: 3}","[13, 40, 51]",131405513,Zr5Al1Sb3
Zr5AlPb3,mp-1106219,0.0,6.48259138,0.0,icsd-604194,"{40: 5, 13: 1, 82: 3}","[13, 40, 82]",131405823,Zr5Al1Pb3
NbAlRu2,mp-11537,0.0,7.80245977,0.0,icsd-105524,"{41: 1, 13: 1, 44: 2}","[13, 41, 44]",131411442,Nb1Al1Ru2
Nb2Al,mp-18427,0.0,5.91002105,0.0,icsd-608680,"{41: 2, 13: 1}","[13, 41]",131412,Nb2Al1
Ca13Al14,mp-1193055,0.0,3.99140257,0.0,icsd-165239,"{20: 13, 13: 14}","[13, 20]",13142013,Ca13Al14
AlMo3,mp-259,0.0,8.18386744,0.0,icsd-608585,"{13: 1, 42: 3}","[13, 42]",131423,Al1Mo3
AlTc2,mp-1018166,0.0,9.15432907,0.0,icsd-609480,"{13: 1, 43: 2}","[13, 43]",131432,Al1Tc2
AlRu,mp-542569,0.0,9.20960075,0.0,icsd-58155,"{13: 1, 44: 1}","[13, 44]",131441,Al1Ru1
CeAlRu,mp-604008,0.0,8.18224346,0.0,icsd-160051,"{58: 1, 13: 1, 44: 1}","[13, 44, 58]",131441581,Ce1Al1Ru1
Ce2AlRu,mp-1190720,0.0,8.21365231,0.0,icsd-422577,"{58: 2, 13: 1, 44: 1}","[13, 44, 58]",131441582,Ce2Al1Ru1
Ce2AlRu2,mp-1078316,0.0,7.95332696,0.0,icsd-425601,"{58: 2, 13: 1, 44: 2}","[13, 44, 58]",131442582,Ce2Al1Ru2
AlRh,mp-364,0.0,9.12318297,0.0,icsd-58151,"{13: 1, 45: 1}","[13, 45]",131451,Al1Rh1
LaAlRh,mp-1211543,0.0,7.9932278,0.0,pf-7974,"{57: 1, 13: 1, 45: 1}","[13, 45, 57]",131451571,La1Al1Rh1
CeAlRh,mp-3344,0.0,7.80584293,0.0,icsd-55623,"{58: 1, 13: 1, 45: 1}","[13, 45, 58]",131451581,Ce1Al1Rh1
PrAlRh,mp-1209554,0.0,5.58107059,0.0,pf-18486,"{59: 1, 13: 1, 45: 1}","[13, 45, 59]",131451591,Pr1Al1Rh1
NdAlRh,mp-1209843,0.0,5.50570184,0.0,pf-6618,"{60: 1, 13: 1, 45: 1}","[13, 45, 60]",131451601,Nd1Al1Rh1
GdAlRh,mp-1212705,0.0,5.41523528,0.0,pf-17088,"{64: 1, 13: 1, 45: 1}","[13, 45, 64]",131451641,Gd1Al1Rh1
HoAlRh,mp-1212088,0.0,5.44996385,0.0,pf-27641,"{67: 1, 13: 1, 45: 1}","[13, 45, 67]",131451671,Ho1Al1Rh1
TmAlRh,mp-568685,0.0,5.55841732,0.0,icsd-55624,"{69: 1, 13: 1, 45: 1}","[13, 45, 69]",131451691,Tm1Al1Rh1
ThAlRh,mp-1080785,0.0,7.65508983,0.0,icsd-609217,"{90: 1, 13: 1, 45: 1}","[13, 45, 90]",131451901,Th1Al1Rh1
AlPd,mp-7189,0.0,7.02512488,0.0,icsd-609044,"{13: 1, 46: 1}","[13, 46]",131461,Al1Pd1
CeAlPd,mp-21158,0.0,7.36763992,0.0,icsd-156904,"{58: 1, 13: 1, 46: 1}","[13, 46, 58]",131461581,Ce1Al1Pd1
PrAlPd,mp-1080703,0.0,5.24293841,0.0,icsd-603265,"{59: 1, 13: 1, 46: 1}","[13, 46, 59]",131461591,Pr1Al1Pd1
NdAlPd,mp-976368,0.0,5.15838381,0.0,icsd-603266,"{60: 1, 13: 1, 46: 1}","[13, 46, 60]",131461601,Nd1Al1Pd1
SmAlPd,mp-1102212,0.0,5.25633594,0.0,icsd-609058,"{62: 1, 13: 1, 46: 1}","[13, 46, 62]",131461621,Sm1Al1Pd1
GdAlPd,mp-20058,0.0,5.07530486,0.0,icsd-240057,"{64: 1, 13: 1, 46: 1}","[13, 46, 64]",131461641,Gd1Al1Pd1
TbAlPd,mp-12722,0.0,5.47625336,0.0,icsd-609059,"{65: 1, 13: 1, 46: 1}","[13, 46, 65]",131461651,Tb1Al1Pd1
DyAlPd,mp-1103382,0.0,5.44240314,0.0,icsd-607333,"{66: 1, 13: 1, 46: 1}","[13, 46, 66]",131461661,Dy1Al1Pd1
HoAlPd,mp-1102737,0.0,5.38713318,0.0,icsd-608213,"{67: 1, 13: 1, 46: 1}","[13, 46, 67]",131461671,Ho1Al1Pd1
ErAlPd,mp-1102820,0.0,5.4135198,0.0,icsd-607432,"{68: 1, 13: 1, 46: 1}","[13, 46, 68]",131461681,Er1Al1Pd1
TmAlPd,mp-1095667,0.0,5.42882511,0.0,icsd-609062,"{69: 1, 13: 1, 46: 1}","[13, 46, 69]",131461691,Tm1Al1Pd1
LuAlPd,mp-973629,0.0,5.29373802,0.0,icsd-603268,"{71: 1, 13: 1, 46: 1}","[13, 46, 71]",131461711,Lu1Al1Pd1
ThAlPd,mp-1078527,0.0,7.17660022,0.0,icsd-609060,"{90: 1, 13: 1, 46: 1}","[13, 46, 90]",131461901,Th1Al1Pd1
AlPd2,mp-2824,0.0,6.17279053,0.0,icsd-58115,"{13: 1, 46: 2}","[13, 46]",131462,Al1Pd2
CeAlPd2,mp-1106138,0.0,6.69770006,0.0,icsd-604242,"{58: 1, 13: 1, 46: 2}","[13, 46, 58]",131462581,Ce1Al1Pd2
PrAlPd2,mp-1189783,0.0,5.18491922,0.0,icsd-604243,"{59: 1, 13: 1, 46: 2}","[13, 46, 59]",131462591,Pr1Al1Pd2
NdAlPd2,mp-1188755,0.0,5.15617047,0.0,icsd-604244,"{60: 1, 13: 1, 46: 2}","[13, 46, 60]",131462601,Nd1Al1Pd2
HfAlPd2,mp-16501,0.0,6.27432961,0.0,icsd-57906,"{72: 1, 13: 1, 46: 2}","[13, 46, 72]",131462721,Hf1Al1Pd2
AlPd5,mp-605663,0.0,4.66054003,0.0,icsd-245328,"{13: 1, 46: 5}","[13, 46]",131465,Al1Pd5