formula,material_id,band_gap,efermi,energy_above_hull,database_IDs,comp_atoms,sorted_keys_comp_atoms,comp_number,new_formula
Tm2(Al3Ir)3,mp-1207988,0.0,7.34050575,0.0,pf-7953,"{69: 2, 13: 9, 77: 3}","[13, 69, 77]",139692773,Tm2Al9Ir3
Lu2(Al3Ir)3,mp-1210911,0.0,7.32785374,0.0,pf-28988,"{71: 2, 13: 9, 77: 3}","[13, 71, 77]",139712773,Lu2Al9Ir3
Al9Ir2,mp-12003,0.0,7.90821695,0.0,icsd-608238,"{13: 9, 77: 2}","[13, 77]",139772,Al9Ir2
U2(Al3Ir)3,mp-1207966,0.0,9.10979977,0.0,pf-32343,"{92: 2, 13: 9, 77: 3}","[13, 77, 92]",139773922,U2Al9Ir3
NaAlH4,mp-23704,4.6666,-0.87893027,0.0,icsd-8022,"{11: 1, 13: 1, 1: 4}","[1, 11, 13]",14111131,Na1Al1H4
KAlH4,mp-31097,5.0652,-2.14112091,0.0,icsd-152677,"{19: 1, 13: 1, 1: 4}","[1, 13, 19]",14131191,K1Al1H4
RbAlH4,mp-1209241,5.1411,-2.43952332,0.0,pf-2104,"{37: 1, 13: 1, 1: 4}","[1, 13, 37]",14131371,Rb1Al1H4
AlH4NF4,mp-696815,6.8114,-1.29817992,0.0,icsd-33539,"{13: 1, 1: 4, 7: 1, 9: 4}","[1, 7, 9, 13]",147194131,Al1H4N1F4
Na2Al2Si3(HO3)4,mp-1173798,4.5783000000000005,0.0770548,0.0,icsd-56657,"{11: 2, 13: 2, 14: 3, 1: 4, 8: 12}","[1, 8, 11, 13, 14]",14812112132143,Na2Al2Si3H4O12
KAlP4(H2O7)2,mp-722684,5.662599999999999,0.37260276,0.0,icsd-63033,"{19: 1, 13: 1, 15: 4, 1: 4, 8: 14}","[1, 8, 13, 15, 19]",14814131154191,K1Al1P4H4O14
CsAlH4(OF2)2,mp-1191186,6.3210999999999995,4.43996346,0.0,icsd-33821,"{55: 1, 13: 1, 1: 4, 8: 2, 9: 4}","[1, 8, 9, 13, 55]",148294131551,Cs1Al1H4O2F4
CaAlH5,mp-966582,2.7165000000000004,1.3971609,0.0,icsd-172034,"{20: 1, 13: 1, 1: 5}","[1, 13, 20]",15131201,Ca1Al1H5
SrAlH5,mp-568450,3.5012999999999996,0.98335756,0.0,icsd-156315,"{38: 1, 13: 1, 1: 5}","[1, 13, 38]",15131381,Sr1Al1H5
BaAlH5,mp-644097,2.7537,1.68401729,0.0,icsd-94882,"{56: 1, 13: 1, 1: 5}","[1, 13, 56]",15131561,Ba1Al1H5
AlH5(SeO4)2,mp-1214960,4.4382,4.6700721,0.0,pf-15293,"{13: 1, 1: 5, 34: 2, 8: 8}","[1, 8, 13, 34]",1588131342,Al1H5Se2O8
K2NaAlH6,mp-24412,2.3466,0.11558888,0.0,icsd-152891,"{19: 2, 11: 1, 13: 1, 1: 6}","[1, 11, 13, 19]",16111131192,K2Na1Al1H6
Na3AlH6,mp-23705,2.8145000000000002,0.13945282,0.0,icsd-152888,"{11: 3, 13: 1, 1: 6}","[1, 11, 13]",16113131,Na3Al1H6
K3AlH6,mp-24034,2.8773,-0.39529445,0.0,icsd-152889,"{19: 3, 13: 1, 1: 6}","[1, 13, 19]",16131193,K3Al1H6
LaAlH6,mp-1079283,2.4764999999999997,3.6539724,0.0,icsd-247037,"{57: 1, 13: 1, 1: 6}","[1, 13, 57]",16131571,La1Al1H6
PrAlH6,mp-1079627,2.0349,2.07651378,0.0,icsd-247042,"{59: 1, 13: 1, 1: 6}","[1, 13, 59]",16131591,Pr1Al1H6
NdAlH6,mp-1078999,2.0357,1.97872026,0.0,icsd-247043,"{60: 1, 13: 1, 1: 6}","[1, 13, 60]",16131601,Nd1Al1H6
AlH6C2SeCl3,mp-1200831,4.6429,-1.74818387,0.0,icsd-250558,"{13: 1, 1: 6, 6: 2, 34: 1, 17: 3}","[1, 6, 13, 17, 34]",1662131173341,Al1H6C2Se1Cl3
SrAl2H6C2O11,mp-1208735,5.103899999999999,0.95506092,0.0,pf-14272,"{38: 1, 13: 2, 1: 6, 6: 2, 8: 11}","[1, 6, 8, 13, 38]",1662811132381,Sr1Al2H6C2O11
AlH6N2Cl3,mp-740718,5.0498,-1.07255117,0.0,icsd-72286,"{13: 1, 1: 6, 7: 2, 17: 3}","[1, 7, 13, 17]",1672131173,Al1H6N2Cl3
KAlH6(OF3)2,mp-723378,6.9765999999999995,-2.83801944,0.0,icsd-69434,"{19: 1, 13: 1, 1: 6, 8: 2, 9: 6}","[1, 8, 9, 13, 19]",168296131191,K1Al1H6O2F6
AlH6BrO4,mp-1192001,4.837899999999999,3.57895189,0.0,icsd-424555,"{13: 1, 1: 6, 35: 1, 8: 4}","[1, 8, 13, 35]",1684131351,Al1H6Br1O4
AlH6IO4,mp-1191939,4.2593,4.02325632,0.0,icsd-424556,"{13: 1, 1: 6, 53: 1, 8: 4}","[1, 8, 13, 53]",1684131531,Al1H6I1O4
Ba2AlH7,mp-698114,2.96,0.48761948,0.0,icsd-97394,"{56: 2, 13: 1, 1: 7}","[1, 13, 56]",17131562,Ba2Al1H7
AlH7C2SCl4,mp-1198123,4.6652000000000005,-1.96336114,0.0,icsd-250555,"{13: 1, 1: 7, 6: 2, 16: 1, 17: 4}","[1, 6, 13, 16, 17]",1762131161174,Al1H7C2S1Cl4
AlPH8(CCl2)2,mp-569751,5.4006,-1.89658914,0.0,icsd-151083,"{13: 1, 15: 1, 1: 8, 6: 2, 17: 4}","[1, 6, 13, 15, 17]",1862131151174,Al1P1H8C2Cl4
NaCa2Al4H8C4ClO20,mp-698491,5.1711,0.85124299,0.0,icsd-100720,"{11: 1, 20: 2, 13: 4, 1: 8, 6: 4, 17: 1, 8: 20}","[1, 6, 8, 11, 13, 17, 20]",1864820111134171202,Na1Ca2Al4H8C4Cl1O20
Al2Si3H8(NO5)2,mp-706243,4.576099999999999,0.30721714,0.0,icsd-73364,"{13: 2, 14: 3, 1: 8, 7: 2, 8: 10}","[1, 7, 8, 13, 14]",1872810132143,Al2Si3H8N2O10
RbAl(H2N)4,mp-1193778,2.6557,1.96932094,0.0,icsd-40168,"{37: 1, 13: 1, 1: 8, 7: 4}","[1, 7, 13, 37]",1874131371,Rb1Al1H8N4
CsAl(H2N)4,mp-634446,2.9105,0.70045585,0.0,icsd-2537,"{55: 1, 13: 1, 1: 8, 7: 4}","[1, 7, 13, 55]",1874131551,Cs1Al1H8N4
AlPH9(CCl)3,mp-1196119,5.6312,3.41338115,0.0,icsd-192497,"{13: 1, 15: 1, 1: 9, 6: 3, 17: 3}","[1, 6, 13, 15, 17]",1963131151173,Al1P1H9C3Cl3
AlSiH9C3Cl2O,mp-24308,5.6642,-2.46481438,0.0,icsd-170678,"{13: 1, 14: 1, 1: 9, 6: 3, 17: 2, 8: 1}","[1, 6, 8, 13, 14, 17]",196381131141172,Al1Si1H9C3Cl2O1
BeAlB,mp-4262,0.0,7.38446061,0.0,icsd-43828,"{4: 1, 13: 1, 5: 1}","[4, 5, 13]",4151131,Be1Al1B1
Na4BeAlSi4ClO12,mp-23151,4.8678,5.04558717,0.0,icsd-55264,"{11: 4, 4: 1, 13: 1, 14: 4, 17: 1, 8: 12}","[4, 8, 11, 13, 14, 17]",41812114131144171,Na4Be1Al1Si4Cl1O12
BeAl2O4,mp-3081,6.117700000000001,5.01666759,0.0,icsd-62501,"{4: 1, 13: 2, 8: 4}","[4, 8, 13]",4184132,Be1Al2O4
Na3BeAl(SiO4)2,mp-556258,4.6048,1.48096444,0.0,icsd-4334,"{11: 3, 4: 1, 13: 1, 14: 2, 8: 8}","[4, 8, 11, 13, 14]",4188113131142,Na3Be1Al1Si2O8
AlBMo,mp-7574,0.0,9.65515793,0.0,icsd-251808,"{13: 1, 5: 1, 42: 1}","[5, 13, 42]",51131421,Al1B1Mo1
AlBW,mp-1070916,0.0,9.42691871,0.0,icsd-251809,"{13: 1, 5: 1, 74: 1}","[5, 13, 74]",51131741,Al1B1W1
LaAl2BRu2,mp-1018738,0.0,7.58855234,0.0,icsd-174342,"{57: 1, 13: 2, 5: 1, 44: 2}","[5, 13, 44, 57]",51132442571,La1Al2B1Ru2
LaAl2BOs2,mp-1071208,0.0,7.80967714,0.0,icsd-251834,"{57: 1, 13: 2, 5: 1, 76: 2}","[5, 13, 57, 76]",51132571762,La1Al2B1Os2
Ba8Al10B12O41,mp-1019529,4.4373,1.51860367,0.0,icsd-183392,"{56: 8, 13: 10, 5: 12, 8: 41}","[5, 8, 13, 56]",5128411310568,Ba8Al10B12O41
BaAlBO3F2,mp-558491,6.0642000000000005,1.11652202,0.0,icsd-421141,"{56: 1, 13: 1, 5: 1, 8: 3, 9: 2}","[5, 8, 9, 13, 56]",518392131561,Ba1Al1B1O3F2
CaAlBO4,mp-559759,4.4509,0.79674122,0.0,icsd-27647,"{20: 1, 13: 1, 5: 1, 8: 4}","[5, 8, 13, 20]",5184131201,Ca1Al1B1O4
AlBPbO4,mp-558137,2.7567000000000004,4.17669567,0.0,icsd-98573,"{13: 1, 5: 1, 82: 1, 8: 4}","[5, 8, 13, 82]",5184131821,Al1B1Pb1O4
Al5BO9,mp-3281,4.9384999999999994,2.53200228,0.0,icsd-71114,"{13: 5, 5: 1, 8: 9}","[5, 8, 13]",5189135,Al5B1O9
Sc2AlB2Ir5,mp-1209025,0.0,8.57730239,0.0,pf-2599,"{21: 2, 13: 1, 5: 2, 77: 5}","[5, 13, 21, 77]",52131212775,Sc2Al1B2Ir5
Al(CrB)2,mp-7692,0.0,8.57388426,0.0,icsd-20083,"{13: 1, 24: 2, 5: 2}","[5, 13, 24]",52131242,Al1Cr2B2
Mn2AlB2,mp-7892,0.0,8.72129842,0.0,icsd-251810,"{25: 2, 13: 1, 5: 2}","[5, 13, 25]",52131252,Mn2Al1B2
Al(FeB)2,mp-3805,0.0,8.25996647,0.0,icsd-251811,"{13: 1, 26: 2, 5: 2}","[5, 13, 26]",52131262,Al1Fe2B2
La2Al(BOs)2,mp-1192652,0.0,8.48463279,0.0,icsd-251835,"{57: 2, 13: 1, 5: 2, 76: 2}","[5, 13, 57, 76]",52131572762,La2Al1B2Os2
Al3(BRu2)2,mp-541849,0.0,8.93865172,0.0,icsd-43844,"{13: 3, 5: 2, 44: 4}","[5, 13, 44]",52133444,Al3B2Ru4
Na2Al2B2O7,mp-554041,4.3384,0.6070832,0.0,icsd-237155,"{11: 2, 13: 2, 5: 2, 8: 7}","[5, 8, 11, 13]",5287112132,Na2Al2B2O7
K2Al2B2O7,mp-560217,4.5949,0.08516108,0.0,icsd-185041,"{19: 2, 13: 2, 5: 2, 8: 7}","[5, 8, 13, 19]",5287132192,K2Al2B2O7
CaAl2B2O7,mp-557689,4.8228,0.6123952,0.0,icsd-86785,"{20: 1, 13: 2, 5: 2, 8: 7}","[5, 8, 13, 20]",5287132201,Ca1Al2B2O7
Rb2Al2B2O7,mp-559284,4.1788,0.33127506,0.0,icsd-280977,"{37: 2, 13: 2, 5: 2, 8: 7}","[5, 8, 13, 37]",5287132372,Rb2Al2B2O7
SrAl2B2O7,mp-558669,4.6876999999999995,0.26801732,0.0,icsd-91031,"{38: 1, 13: 2, 5: 2, 8: 7}","[5, 8, 13, 38]",5287132381,Sr1Al2B2O7
Cs2Al2B2O7,mp-1019602,4.2490000000000006,0.89327426,0.0,icsd-423471,"{55: 2, 13: 2, 5: 2, 8: 7}","[5, 8, 13, 55]",5287132552,Cs2Al2B2O7
BaAl2B2O7,mp-9844,4.6477,0.12226831,0.0,icsd-409171,"{56: 1, 13: 2, 5: 2, 8: 7}","[5, 8, 13, 56]",5287132561,Ba1Al2B2O7
AlCr3B4,mp-637575,0.0,8.8569368,0.0,icsd-20082,"{13: 1, 24: 3, 5: 4}","[5, 13, 24]",54131243,Al1Cr3B4
HoAlB4,mp-1212096,0.0,7.49254949,0.0,pf-34607,"{67: 1, 13: 1, 5: 4}","[5, 13, 67]",54131671,Ho1Al1B4
ErAlB4,mp-1213107,0.0,7.54053818,0.0,pf-3141,"{68: 1, 13: 1, 5: 4}","[5, 13, 68]",54131681,Er1Al1B4
TmAlB4,mp-1191390,0.0,7.53882204,0.0,icsd-659048,"{69: 1, 13: 1, 5: 4}","[5, 13, 69]",54131691,Tm1Al1B4
LuAlB4,mp-8631,0.0,7.37793258,0.0,icsd-167534,"{71: 1, 13: 1, 5: 4}","[5, 13, 71]",54131711,Lu1Al1B4
YAl3(BO3)4,mp-6062,5.157800000000001,3.58246638,0.0,icsd-20223,"{39: 1, 13: 3, 5: 4, 8: 12}","[5, 8, 13, 39]",54812133391,Y1Al3B4O12
Al6B5(O5F)3,mp-6738,6.114699999999999,2.86741499,0.0,icsd-31363,"{13: 6, 5: 5, 8: 15, 9: 3}","[5, 8, 9, 13]",5581593136,Al6B5O15F3
Al4(B2O5)3,mp-31408,5.8172999999999995,1.77267999,0.0,icsd-54854,"{13: 4, 5: 6, 8: 15}","[5, 8, 13]",56815134,Al4B6O15
K3AlB8O15,mp-561447,4.9962,-1.00736155,0.0,icsd-201351,"{19: 3, 13: 1, 5: 8, 8: 15}","[5, 8, 13, 19]",58815131193,K3Al1B8O15
Ba4NaAl2B8(ClO6)3,mp-1204585,4.7156,1.31914869,0.0,icsd-262881,"{56: 4, 11: 1, 13: 2, 5: 8, 17: 3, 8: 18}","[5, 8, 11, 13, 17, 56]",58818111132173564,Ba4Na1Al2B8Cl3O18
Ba4NaAl2B8(BrO6)3,mp-1197875,3.9082999999999997,1.95243876,0.0,icsd-250725,"{56: 4, 11: 1, 13: 2, 5: 8, 35: 3, 8: 18}","[5, 8, 11, 13, 35, 56]",58818111132353564,Ba4Na1Al2B8Br3O18
Sc3AlC,mp-4079,0.0,4.49284498,0.0,icsd-50161,"{21: 3, 13: 1, 6: 1}","[6, 13, 21]",61131213,Sc3Al1C1
Ti2AlC,mp-12990,0.0,6.78520972,0.0,icsd-157767,"{22: 2, 13: 1, 6: 1}","[6, 13, 22]",61131222,Ti2Al1C1
Ti3AlC,mp-3271,0.0,6.78068226,0.0,icsd-163846,"{22: 3, 13: 1, 6: 1}","[6, 13, 22]",61131223,Ti3Al1C1
AlV2C,mp-1025497,0.0,7.13861002,0.0,icsd-606283,"{13: 1, 23: 2, 6: 1}","[6, 13, 23]",61131232,Al1V2C1
AlCr2C,mp-9956,0.0,7.77866002,0.0,icsd-42918,"{13: 1, 24: 2, 6: 1}","[6, 13, 24]",61131242,Al1Cr2C1
Mn3AlC,mp-4593,0.0,7.07086969,0.0,icsd-606226,"{25: 3, 13: 1, 6: 1}","[6, 13, 25]",61131253,Mn3Al1C1
AlFe3C,mp-22793,0.0,7.02813427,0.0,icsd-43853,"{13: 1, 26: 3, 6: 1}","[6, 13, 26]",61131263,Al1Fe3C1
Y3AlC,mp-4448,0.0,3.53300214,0.0,icsd-606288,"{39: 3, 13: 1, 6: 1}","[6, 13, 39]",61131393,Y3Al1C1
Nb2AlC,mp-996162,0.0,6.21319513,0.0,icsd-187513,"{41: 2, 13: 1, 6: 1}","[6, 13, 41]",61131412,Nb2Al1C1
Ce3AlC,mp-10036,0.0,7.12661914,0.0,icsd-43846,"{58: 3, 13: 1, 6: 1}","[6, 13, 58]",61131583,Ce3Al1C1
Gd3AlC,mp-580539,0.0,3.36124582,0.0,icsd-43854,"{64: 3, 13: 1, 6: 1}","[6, 13, 64]",61131643,Gd3Al1C1
Tb3AlC,mp-570822,0.0,3.48254034,0.0,icsd-43866,"{65: 3, 13: 1, 6: 1}","[6, 13, 65]",61131653,Tb3Al1C1
Dy3AlC,mp-29676,0.0,3.40966886,0.0,icsd-43848,"{66: 3, 13: 1, 6: 1}","[6, 13, 66]",61131663,Dy3Al1C1
Ho3AlC,mp-29677,0.0,3.35958985,0.0,icsd-43856,"{67: 3, 13: 1, 6: 1}","[6, 13, 67]",61131673,Ho3Al1C1
Er3AlC,mp-568021,0.0,3.42219397,0.0,icsd-43849,"{68: 3, 13: 1, 6: 1}","[6, 13, 68]",61131683,Er3Al1C1
Lu3AlC,mp-1206894,0.0,3.48462365,0.0,pf-8960,"{71: 3, 13: 1, 6: 1}","[6, 13, 71]",61131713,Lu3Al1C1
Ta2AlC,mp-1025441,0.0,7.01245973,0.0,icsd-187514,"{73: 2, 13: 1, 6: 1}","[6, 13, 73]",61131732,Ta2Al1C1
Ta3Al2CoC,mp-510486,0.0,7.18506157,0.0,icsd-418908,"{73: 3, 13: 2, 27: 1, 6: 1}","[6, 13, 27, 73]",61132271733,Ta3Al2Co1C1
Nb3Al2C,mp-1190604,0.0,6.75607209,0.0,icsd-606235,"{41: 3, 13: 2, 6: 1}","[6, 13, 41]",61132413,Nb3Al2C1
ScAlCO,mp-1080747,1.2166999999999994,6.03704088,0.0,icsd-426425,"{21: 1, 13: 1, 6: 1, 8: 1}","[6, 8, 13, 21]",6181131211,Sc1Al1C1O1
Sr2AlCO3F5,mp-555467,5.2124,0.86890135,0.0,icsd-201803,"{38: 2, 13: 1, 6: 1, 8: 3, 9: 5}","[6, 8, 9, 13, 38]",618395131382,Sr2Al1C1O3F5
Al4CO4,mp-13703,3.8232999999999997,3.27698187,0.0,icsd-18204,"{13: 4, 6: 1, 8: 4}","[6, 8, 13]",6184134,Al4C1O4
Ti3AlC2,mp-3747,0.0,6.95563937,0.0,icsd-93503,"{22: 3, 13: 1, 6: 2}","[6, 13, 22]",62131223,Ti3Al1C2
Ta3AlC2,mp-569568,0.0,7.43736568,0.0,icsd-249399,"{73: 3, 13: 1, 6: 2}","[6, 13, 73]",62131733,Ta3Al1C2
Y3AlC3,mp-1103810,0.0,4.21404237,0.0,icsd-194877,"{39: 3, 13: 1, 6: 3}","[6, 13, 39]",63131393,Y3Al1C3
Ta4AlC3,mp-3802,0.0,7.69536188,0.0,icsd-163551,"{73: 4, 13: 1, 6: 3}","[6, 13, 73]",63131734,Ta4Al1C3
Ti5Al2C3,mp-1079706,0.0,6.91314877,0.0,icsd-187748,"{22: 5, 13: 2, 6: 3}","[6, 13, 22]",63132225,Ti5Al2C3
Th2Al2C3,mp-569564,0.0,7.68069491,0.0,icsd-81572,"{90: 2, 13: 2, 6: 3}","[6, 13, 90]",63132902,Th2Al2C3
Sc(AlC)3,mp-4798,0.02230000000000043,7.46180409,0.0,icsd-660402,"{21: 1, 13: 3, 6: 3}","[6, 13, 21]",63133211,Sc1Al3C3
Y(AlC)3,mp-1104050,0.0,6.77041833,0.0,icsd-606289,"{39: 1, 13: 3, 6: 3}","[6, 13, 39]",63133391,Y1Al3C3
Gd(AlC)3,mp-1104806,0.0,6.49572231,0.0,icsd-606207,"{64: 1, 13: 3, 6: 3}","[6, 13, 64]",63133641,Gd1Al3C3
Tb(AlC)3,mp-972049,0.0,6.70367524,0.0,icsd-606267,"{65: 1, 13: 3, 6: 3}","[6, 13, 65]",63133651,Tb1Al3C3
Dy(AlC)3,mp-1104803,0.0,6.73163185,0.0,icsd-606190,"{66: 1, 13: 3, 6: 3}","[6, 13, 66]",63133661,Dy1Al3C3
Ho(AlC)3,mp-973634,0.0,6.73380742,0.0,icsd-606218,"{67: 1, 13: 3, 6: 3}","[6, 13, 67]",63133671,Ho1Al3C3
Er(AlC)3,mp-1104636,0.026099999999999568,6.79747373,0.0,icsd-606194,"{68: 1, 13: 3, 6: 3}","[6, 13, 68]",63133681,Er1Al3C3
Tm(AlC)3,mp-979041,0.0528000000000004,6.81321437,0.0,icsd-606281,"{69: 1, 13: 3, 6: 3}","[6, 13, 69]",63133691,Tm1Al3C3
Lu(AlC)3,mp-973586,0.1528999999999998,6.853481,0.0,icsd-606220,"{71: 1, 13: 3, 6: 3}","[6, 13, 71]",63133711,Lu1Al3C3
U(AlC)3,mp-568155,0.0,9.85502303,0.0,icsd-43478,"{92: 1, 13: 3, 6: 3}","[6, 13, 92]",63133921,U1Al3C3
Al4C3,mp-1591,1.3154000000000003,7.3085706,0.0,icsd-52287,"{13: 4, 6: 3}","[6, 13]",63134,Al4C3
AlC3(NCl2)3,mp-607454,2.5682,-0.71699648,0.0,icsd-240772,"{13: 1, 6: 3, 7: 3, 17: 6}","[6, 7, 13, 17]",6373131176,Al1C3N3Cl6
Zr2Al3C4,mp-567748,0.0,7.90374828,0.0,icsd-159411,"{40: 2, 13: 3, 6: 4}","[6, 13, 40]",64133402,Zr2Al3C4
Hf2Al3C4,mp-570784,0.0,8.4806581,0.0,icsd-161588,"{72: 2, 13: 3, 6: 4}","[6, 13, 72]",64133722,Hf2Al3C4
U2Al3C4,mp-8894,0.0,10.21003986,0.0,icsd-66750,"{92: 2, 13: 3, 6: 4}","[6, 13, 92]",64133922,U2Al3C4
Th(AlC)4,mp-15123,0.0,7.8476204,0.0,icsd-81573,"{90: 1, 13: 4, 6: 4}","[6, 13, 90]",64134901,Th1Al4C4
Zr3Al3C5,mp-570419,0.0,7.53743403,0.0,icsd-606293,"{40: 3, 13: 3, 6: 5}","[6, 13, 40]",65133403,Zr3Al3C5
Hf3Al3C5,mp-642493,0.0,8.13822659,0.0,icsd-161587,"{72: 3, 13: 3, 6: 5}","[6, 13, 72]",65133723,Hf3Al3C5
Zr4(AlC2)3,mp-569326,0.0,6.81365885,0.0,icsd-159413,"{40: 4, 13: 3, 6: 6}","[6, 13, 40]",66133404,Zr4Al3C6
Al3(V3C2)4,mp-1214915,0.0,7.3558274,0.0,pf-19920,"{13: 3, 23: 12, 6: 8}","[6, 13, 23]",681332312,Al3V12C8
AlN,mp-661,4.0467,6.08101269,0.0,icsd-183638,"{13: 1, 7: 1}","[7, 13]",71131,Al1N1
Ti2AlN,mp-4978,0.0,7.40734594,0.0,icsd-157765,"{22: 2, 13: 1, 7: 1}","[7, 13, 22]",71131222,Ti2Al1N1
Zr3AlN,mp-27898,0.0,5.50250432,0.0,icsd-29521,"{40: 3, 13: 1, 7: 1}","[7, 13, 40]",71131403,Zr3Al1N1
La3AlN,mp-4505,0.0,7.72370315,0.0,icsd-52629,"{57: 3, 13: 1, 7: 1}","[7, 13, 57]",71131573,La3Al1N1
Ce3AlN,mp-10881,0.0,7.49830826,0.0,icsd-185960,"{58: 3, 13: 1, 7: 1}","[7, 13, 58]",71131583,Ce3Al1N1
Pr3AlN,mp-1094072,0.0,4.15107682,0.0,icsd-52639,"{59: 3, 13: 1, 7: 1}","[7, 13, 59]",71131593,Pr3Al1N1
Sm3AlN,mp-1094052,0.0,3.77674518,0.0,icsd-52640,"{62: 3, 13: 1, 7: 1}","[7, 13, 62]",71131623,Sm3Al1N1
Tb3AlN,mp-1018638,0.0,4.10726341,0.0,icsd-608634,"{65: 3, 13: 1, 7: 1}","[7, 13, 65]",71131653,Tb3Al1N1
Dy3AlN,mp-1017557,0.0,4.12028206,0.0,icsd-607314,"{66: 3, 13: 1, 7: 1}","[7, 13, 66]",71131663,Dy3Al1N1
Ho3AlN,mp-1017577,0.0,4.08707037,0.0,icsd-608196,"{67: 3, 13: 1, 7: 1}","[7, 13, 67]",71131673,Ho3Al1N1
Er3AlN,mp-1017558,0.0,4.16750679,0.0,icsd-607415,"{68: 3, 13: 1, 7: 1}","[7, 13, 68]",71131683,Er3Al1N1
Tm3AlN,mp-1018641,0.0,4.16587875,0.0,icsd-608639,"{69: 3, 13: 1, 7: 1}","[7, 13, 69]",71131693,Tm3Al1N1
Lu3AlN,mp-1017627,0.0,4.24716727,0.0,icsd-608380,"{71: 3, 13: 1, 7: 1}","[7, 13, 71]",71131713,Lu3Al1N1
Hf3AlN,mp-1079110,0.0,6.18676677,0.0,icsd-602284,"{72: 3, 13: 1, 7: 1}","[7, 13, 72]",71131723,Hf3Al1N1
Nb3Al2N,mp-1191953,0.0,7.08732042,0.0,icsd-608629,"{41: 3, 13: 2, 7: 1}","[7, 13, 41]",71132413,Nb3Al2N1
Na3AlP3NO9,mp-6860,4.9929,1.73596999,0.0,icsd-78373,"{11: 3, 13: 1, 15: 3, 7: 1, 8: 9}","[7, 8, 11, 13, 15]",7189113131153,Na3Al1P3N1O9
AlP3(NCl3)3,mp-683949,3.6551,-0.36217984,0.0,icsd-170869,"{13: 1, 15: 3, 7: 3, 17: 9}","[7, 13, 15, 17]",73131153179,Al1P3N3Cl9
Ca3AlN3,mp-29596,2.4565,3.90276448,0.0,icsd-410579,"{20: 3, 13: 1, 7: 3}","[7, 13, 20]",73131203,Ca3Al1N3
Ti4AlN3,mp-568934,0.0,8.14233288,0.0,icsd-91772,"{22: 4, 13: 1, 7: 3}","[7, 13, 22]",73131224,Ti4Al1N3
Ca3(AlN2)2,mp-29820,2.1954000000000002,4.26196706,0.0,icsd-280348,"{20: 3, 13: 2, 7: 4}","[7, 13, 20]",74132203,Ca3Al2N4
Sr3(AlN2)2,mp-17129,1.9055,3.87677845,0.0,icsd-74824,"{38: 3, 13: 2, 7: 4}","[7, 13, 38]",74132383,Sr3Al2N4
Ba3(AlN2)2,mp-17133,1.5661999999999998,3.98513782,0.0,icsd-410578,"{56: 3, 13: 2, 7: 4}","[7, 13, 56]",74132563,Ba3Al2N4
BaAl2Si3(NO)4,mp-1019531,3.5521000000000003,3.71502102,0.0,icsd-194213,"{56: 1, 13: 2, 14: 3, 7: 4, 8: 4}","[7, 8, 13, 14, 56]",7484132143561,Ba1Al2Si3N4O4
Cs2Al(NO3)5,mp-572149,2.9065,-0.92709091,0.0,icsd-4246,"{55: 2, 13: 1, 7: 5, 8: 15}","[7, 8, 13, 55]",75815131552,Cs2Al1N5O15
Ca5Al2(SiN4)2,mp-866314,2.7947999999999995,4.88996778,0.0,icsd-414469,"{20: 5, 13: 2, 14: 2, 7: 8}","[7, 13, 14, 20]",78132142205,Ca5Al2Si2N8
Cs2AlP3O10,mp-542656,4.6788,5.54563765,0.0,icsd-280355,"{55: 2, 13: 1, 15: 3, 8: 10}","[8, 13, 15, 55]",810131153552,Cs2Al1P3O10
Ba7Al64O103,mp-667379,4.2537,3.94085419,0.0,icsd-81999,"{56: 7, 13: 64, 8: 103}","[8, 13, 56]",81031364567,Ba7Al64O103
Ba5AlRu2O11,mp-1214930,0.07860000000000023,3.42803539,0.0,pf-3636,"{56: 5, 13: 1, 44: 2, 8: 11}","[8, 13, 44, 56]",811131442565,Ba5Al1Ru2O11
Ba5AlIr2O11,mp-21742,0.0,3.4696446,0.0,icsd-67143,"{56: 5, 13: 1, 77: 2, 8: 11}","[8, 13, 56, 77]",811131565772,Ba5Al1Ir2O11
AlClO,mp-27863,5.593999999999999,1.70025454,0.0,icsd-27812,"{13: 1, 17: 1, 8: 1}","[8, 13, 17]",81131171,Al1Cl1O1
AlBrO,mp-1214833,3.0144,0.89706443,0.0,pf-34621,"{13: 1, 35: 1, 8: 1}","[8, 13, 35]",81131351,Al1Br1O1
La3AlO,mp-1206996,0.0,8.40494206,0.0,pf-28907,"{57: 3, 13: 1, 8: 1}","[8, 13, 57]",81131573,La3Al1O1
Al2AgCl5O,mp-572634,3.4432,-0.33175976,0.0,icsd-37240,"{13: 2, 47: 1, 17: 5, 8: 1}","[8, 13, 17, 47]",81132175471,Al2Ag1Cl5O1
Al2SnCl6O,mp-560633,3.7793,-0.43516051,0.0,icsd-411777,"{13: 2, 50: 1, 17: 6, 8: 1}","[8, 13, 17, 50]",81132176501,Al2Sn1Cl6O1
Sr13Al6Si8O,mp-581263,0.0,3.39145065,0.0,icsd-418388,"{38: 13, 13: 6, 14: 8, 8: 1}","[8, 13, 14, 38]",811361483813,Sr13Al6Si8O1
Rb2NaAl2(PO4)3,mp-559610,4.6183,1.03613117,0.0,icsd-92840,"{37: 2, 11: 1, 13: 2, 15: 3, 8: 12}","[8, 11, 13, 15, 37]",812111132153372,Rb2Na1Al2P3O12
NaTi2Al5O12,mp-560591,2.7190000000000003,3.65586201,0.0,icsd-15346,"{11: 1, 22: 2, 13: 5, 8: 12}","[8, 11, 13, 22]",812111135222,Na1Ti2Al5O12
Na4Al3Si3ClO12,mp-23145,4.697500000000001,-0.1081618,0.0,icsd-98819,"{11: 4, 13: 3, 14: 3, 17: 1, 8: 12}","[8, 11, 13, 14, 17]",812114133143171,Na4Al3Si3Cl1O12
Na4Al3Si3BrO12,mp-23147,4.609800000000001,-0.08317313,0.0,icsd-417676,"{11: 4, 13: 3, 14: 3, 35: 1, 8: 12}","[8, 11, 13, 14, 35]",812114133143351,Na4Al3Si3Br1O12
Na4Al3Si3IO12,mp-23655,4.2105999999999995,0.52614989,0.0,icsd-68960,"{11: 4, 13: 3, 14: 3, 53: 1, 8: 12}","[8, 11, 13, 14, 53]",812114133143531,Na4Al3Si3I1O12
Na4Al3Ge3ClO12,mp-559286,4.0831,-0.88100202,0.0,icsd-65664,"{11: 4, 13: 3, 32: 3, 17: 1, 8: 12}","[8, 11, 13, 17, 32]",812114133171323,Na4Al3Ge3Cl1O12
Na4Al3Ge3BrO12,mp-559084,3.8809,-0.75532011,0.0,icsd-65665,"{11: 4, 13: 3, 32: 3, 35: 1, 8: 12}","[8, 11, 13, 32, 35]",812114133323351,Na4Al3Ge3Br1O12
Na4Al3Ge3IO12,mp-23651,3.4006,0.03195444,0.0,icsd-65666,"{11: 4, 13: 3, 32: 3, 53: 1, 8: 12}","[8, 11, 13, 32, 53]",812114133323531,Na4Al3Ge3I1O12
K2CeAl(SiO3)4,mp-1019774,0.27090000000000014,4.91267638,0.0,icsd-290663,"{19: 2, 58: 1, 13: 1, 14: 4, 8: 12}","[8, 13, 14, 19, 58]",812131144192581,K2Ce1Al1Si4O12
K3Al2(PO4)3,mp-560629,4.4329,0.33657536,0.0,icsd-280210,"{19: 3, 13: 2, 15: 3, 8: 12}","[8, 13, 15, 19]",812132153193,K3Al2P3O12
Rb3Al2(PO4)3,mp-560459,4.4173,0.37864095,0.0,icsd-280211,"{37: 3, 13: 2, 15: 3, 8: 12}","[8, 13, 15, 37]",812132153373,Rb3Al2P3O12