formula,material_id,band_gap,efermi,energy_above_hull,database_IDs,comp_atoms,sorted_keys_comp_atoms,comp_number,new_formula
AlH10N2OF5,mp-24618,6.1343,-2.28489958,0.0,icsd-201652,"{13: 1, 1: 10, 7: 2, 8: 1, 9: 5}","[1, 7, 8, 9, 13]",110728195131,Al1H10N2O1F5
AlH10SO9F,mp-730446,5.459199999999999,-0.90955154,0.0,icsd-41562,"{13: 1, 1: 10, 16: 1, 8: 9, 9: 1}","[1, 8, 9, 13, 16]",1108991131161,Al1H10S1O9F1
NaAlSi,mp-27335,0.0,4.47273968,0.0,icsd-182834,"{11: 1, 13: 1, 14: 1}","[11, 13, 14]",111131141,Na1Al1Si1
NaAl(PS3)2,mp-1189227,2.6538,1.91297429,0.0,icsd-425980,"{11: 1, 13: 1, 15: 2, 16: 6}","[11, 13, 15, 16]",111131152166,Na1Al1P2S6
K2NaAlP2,mp-9068,1.242,2.33952144,0.0,icsd-73279,"{19: 2, 11: 1, 13: 1, 15: 2}","[11, 13, 15, 19]",111131152192,K2Na1Al1P2
NaSr2AlP3,mp-620652,0.31220000000000026,3.95434646,0.0,icsd-409319,"{11: 1, 38: 2, 13: 1, 15: 3}","[11, 13, 15, 38]",111131153382,Na1Sr2Al1P3
NaEu2AlP3,mp-1193394,0.0,4.42290964,0.0,icsd-409320,"{11: 1, 63: 2, 13: 1, 15: 3}","[11, 13, 15, 63]",111131153632,Na1Eu2Al1P3
NaAlCl4,mp-23363,5.1556999999999995,-1.12511809,0.0,icsd-30611,"{11: 1, 13: 1, 17: 4}","[11, 13, 17]",111131174,Na1Al1Cl4
K2NaAlAs2,mp-9069,1.026,1.92259448,0.0,icsd-73280,"{19: 2, 11: 1, 13: 1, 33: 2}","[11, 13, 19, 33]",111131192332,K2Na1Al1As2
NaAlGe,mp-7400,0.0,4.34705159,0.0,icsd-10147,"{11: 1, 13: 1, 32: 1}","[11, 13, 32]",111131321,Na1Al1Ge1
NaAlSe2,mp-17060,2.8665999999999996,1.73703096,0.0,icsd-300173,"{11: 1, 13: 1, 34: 2}","[11, 13, 34]",111131342,Na1Al1Se2
NaAlBr4,mp-1210155,4.1524,2.7282155,0.0,pf-3843,"{11: 1, 13: 1, 35: 4}","[11, 13, 35]",111131354,Na1Al1Br4
NaAlTe2,mp-10163,1.2875000000000005,3.79437726,0.0,icsd-44701,"{11: 1, 13: 1, 52: 2}","[11, 13, 52]",111131522,Na1Al1Te2
NaAlI4,mp-29395,3.4482,0.31786354,0.0,icsd-400521,"{11: 1, 13: 1, 53: 4}","[11, 13, 53]",111131534,Na1Al1I4
NaAl6Sb7(TeCl3)8,mp-1200510,1.4978,2.75526968,0.0,icsd-425227,"{11: 1, 13: 6, 51: 7, 52: 8, 17: 24}","[11, 13, 17, 51, 52]",1111361724517528,Na1Al6Sb7Te8Cl24
SrAlSiH,mp-570485,0.6256999999999993,4.43495982,0.0,icsd-162863,"{38: 1, 13: 1, 14: 1, 1: 1}","[1, 13, 14, 38]",11131141381,Sr1Al1Si1H1
BaAlSiH,mp-571093,0.7092999999999998,3.87963666,0.0,icsd-162862,"{56: 1, 13: 1, 14: 1, 1: 1}","[1, 13, 14, 56]",11131141561,Ba1Al1Si1H1
AlFe3H,mp-1206123,0.0,6.77516341,0.0,pf-18684,"{13: 1, 26: 3, 1: 1}","[1, 13, 26]",11131263,Al1Fe3H1
SrAlGeH,mp-980057,0.7233999999999998,4.09667939,0.0,icsd-247007,"{38: 1, 13: 1, 32: 1, 1: 1}","[1, 13, 32, 38]",11131321381,Sr1Al1Ge1H1
BaAlGeH,mp-1207108,0.7492999999999999,3.73762939,0.0,icsd-247006,"{56: 1, 13: 1, 32: 1, 1: 1}","[1, 13, 32, 56]",11131321561,Ba1Al1Ge1H1
AlH11SO10,mp-722527,5.5356000000000005,-1.06192055,0.0,icsd-61493,"{13: 1, 1: 11, 16: 1, 8: 10}","[1, 8, 13, 16]",111810131161,Al1H11S1O10
Na2Al2As3,mp-17473,1.1771000000000003,2.87866161,0.0,icsd-300193,"{11: 2, 13: 2, 33: 3}","[11, 13, 33]",112132333,Na2Al2As3
Al(BH4)3,mp-569787,6.2431,-4.70100868,0.0,icsd-158291,"{13: 1, 5: 3, 1: 12}","[1, 5, 13]",11253131,Al1B3H12
AlH12(NO5)3,mp-1203296,3.5696000000000003,2.26188602,0.0,icsd-96764,"{13: 1, 1: 12, 7: 3, 8: 15}","[1, 7, 8, 13]",11273815131,Al1H12N3O15
AlP2H12N3O8,mp-1215134,4.6888,4.27790324,0.0,pf-14907,"{13: 1, 15: 2, 1: 12, 7: 3, 8: 8}","[1, 7, 8, 13, 15]",1127388131152,Al1P2H12N3O8
NaAlH12(SO7)2,mp-1199345,5.2103,4.75108505,0.0,icsd-188767,"{11: 1, 13: 1, 1: 12, 16: 2, 8: 14}","[1, 8, 11, 13, 16]",112814111131162,Na1Al1H12S2O14
Al2H12(SeO5)3,mp-707424,4.7445,-0.56164047,0.0,icsd-72871,"{13: 2, 1: 12, 34: 3, 8: 15}","[1, 8, 13, 34]",112815132343,Al2H12Se3O15
CaAl6H12(SO7)4,mp-1194752,5.5902,1.56811749,0.0,icsd-5057,"{20: 1, 13: 6, 1: 12, 16: 4, 8: 28}","[1, 8, 13, 16, 20]",112828136164201,Ca1Al6H12S4O28
AlH12(ClO2)3,mp-23743,5.1391,-1.21075283,0.0,icsd-22071,"{13: 1, 1: 12, 17: 3, 8: 6}","[1, 8, 13, 17]",11286131173,Al1H12Cl3O6
Na3AlP2,mp-5122,1.346,2.38936207,0.0,icsd-402081,"{11: 3, 13: 1, 15: 2}","[11, 13, 15]",113131152,Na3Al1P2
Na3AlS3,mp-560538,2.91,1.41571511,0.0,icsd-300167,"{11: 3, 13: 1, 16: 3}","[11, 13, 16]",113131163,Na3Al1S3
K6Na3AlSb4,mp-541707,0.7282999999999997,1.90261153,0.0,icsd-401209,"{19: 6, 11: 3, 13: 1, 51: 4}","[11, 13, 19, 51]",113131196514,K6Na3Al1Sb4
Na3Ca3AlAs4,mp-15572,0.9426000000000001,2.67369271,0.0,icsd-402309,"{11: 3, 20: 3, 13: 1, 33: 4}","[11, 13, 20, 33]",113131203334,Na3Ca3Al1As4
Na3Ca3AlSb4,mp-1190339,0.4586000000000001,3.66187123,0.0,icsd-291242,"{11: 3, 20: 3, 13: 1, 51: 4}","[11, 13, 20, 51]",113131203514,Na3Ca3Al1Sb4
Na3AlAs2,mp-8543,0.8472,2.06260567,0.0,icsd-63149,"{11: 3, 13: 1, 33: 2}","[11, 13, 33]",113131332,Na3Al1As2
Na3AlSe3,mp-9682,2.3831,0.81352339,0.0,icsd-300166,"{11: 3, 13: 1, 34: 3}","[11, 13, 34]",113131343,Na3Al1Se3
Na3AlTe3,mp-9680,2.1101,2.06836141,0.0,icsd-300163,"{11: 3, 13: 1, 52: 3}","[11, 13, 52]",113131523,Na3Al1Te3
Na5Al3H14,mp-24822,2.5843000000000003,0.62925777,0.0,icsd-246195,"{11: 5, 13: 3, 1: 14}","[1, 11, 13]",114115133,Na5Al3H14
AlH14SeNO14,mp-1197821,3.5761000000000003,-0.94854148,0.0,icsd-250369,"{13: 1, 1: 14, 34: 1, 7: 1, 8: 14}","[1, 7, 8, 13, 34]",11471814131341,Al1H14Se1N1O14
RbAlBP2HO9,mp-542130,5.2635,1.13374221,0.0,icsd-409608,"{37: 1, 13: 1, 5: 1, 15: 2, 1: 1, 8: 9}","[1, 5, 8, 13, 15, 37]",115189131152371,Rb1Al1B1P2H1O9
CsAlBP2HO9,mp-542129,5.2653,1.25920677,0.0,icsd-409607,"{55: 1, 13: 1, 5: 1, 15: 2, 1: 1, 8: 9}","[1, 5, 8, 13, 15, 55]",115189131152551,Cs1Al1B1P2H1O9
Al2B3HO8,mp-1199198,5.5664,4.48957611,0.0,icsd-249503,"{13: 2, 5: 3, 1: 1, 8: 8}","[1, 5, 8, 13]",115388132,Al2B3H1O8
AlH15N5Cl3,mp-699469,4.6579999999999995,-0.88737129,0.0,icsd-95854,"{13: 1, 1: 15, 7: 5, 17: 3}","[1, 7, 13, 17]",11575131173,Al1H15N5Cl3
AlH15Br3N5,mp-1199829,4.3958,-0.81339534,0.0,icsd-95855,"{13: 1, 1: 15, 35: 3, 7: 5}","[1, 7, 13, 35]",11575131353,Al1H15Br3N5
KAl(BH4)4,mp-1195284,6.646599999999999,2.68062932,0.0,icsd-195116,"{19: 1, 13: 1, 5: 4, 1: 16}","[1, 5, 13, 19]",11654131191,K1Al1B4H16
Al2H16S3O20,mp-850293,5.397799999999999,-0.47777585,0.0,icsd-402267,"{13: 2, 1: 16, 16: 3, 8: 20}","[1, 8, 13, 16]",116820132163,Al2H16S3O20
Na7Al2Sb5,mp-28267,0.29000000000000004,3.62715975,0.0,icsd-48168,"{11: 7, 13: 2, 51: 5}","[11, 13, 51]",117132515,Na7Al2Sb5
AlHO2,mp-625152,5.546000000000001,4.34904862,0.0,icsd-173077,"{13: 1, 1: 1, 8: 2}","[1, 8, 13]",1182131,Al1H1O2
Ba3AlHO4,mp-707218,4.0379000000000005,1.53061796,0.0,icsd-280520,"{56: 3, 13: 1, 1: 1, 8: 4}","[1, 8, 13, 56]",1184131563,Ba3Al1H1O4
AlHSO5,mp-1105277,5.6906,7.79734503,0.0,icsd-193553,"{13: 1, 1: 1, 16: 1, 8: 5}","[1, 8, 13, 16]",1185131161,Al1H1S1O5
NaCaAlPHO5F2,mp-1210199,5.4043,1.52092877,0.0,pf-7797,"{11: 1, 20: 1, 13: 1, 15: 1, 1: 1, 8: 5, 9: 2}","[1, 8, 9, 11, 13, 15, 20]",118592111131151201,Na1Ca1Al1P1H1O5F2
AlH18C3(N3F2)3,mp-24554,5.3017,-1.34535725,0.0,icsd-71474,"{13: 1, 1: 18, 6: 3, 7: 9, 9: 6}","[1, 6, 7, 9, 13]",118637996131,Al1H18C3N9F6
NaAl2H18S4N4ClO18,mp-1199124,5.0684000000000005,0.51762197,0.0,icsd-169963,"{11: 1, 13: 2, 1: 18, 16: 4, 7: 4, 17: 1, 8: 18}","[1, 7, 8, 11, 13, 16, 17]",11874818111132164171,Na1Al2H18S4N4Cl1O18
Na2AlSi3HO9,mp-706617,4.671099999999999,0.8012375,0.0,icsd-6265,"{11: 2, 13: 1, 14: 3, 1: 1, 8: 9}","[1, 8, 11, 13, 14]",1189112131143,Na2Al1Si3H1O9
Na4AlP2HO9,mp-741045,4.4207,5.88060003,0.0,icsd-80352,"{11: 4, 13: 1, 15: 2, 1: 1, 8: 9}","[1, 8, 11, 13, 15]",1189114131152,Na4Al1P2H1O9
Ca4Be2Al2Si9(HO14)2,mp-1214670,4.933,1.35463391,0.0,pf-19129,"{20: 4, 4: 2, 13: 2, 14: 9, 1: 2, 8: 28}","[1, 4, 8, 13, 14, 20]",1242828132149204,Ca4Be2Al2Si9H2O28
CsAlH24(SO10)2,mp-1198095,5.2787,-1.56719291,0.0,icsd-201215,"{55: 1, 13: 1, 1: 24, 16: 2, 8: 20}","[1, 8, 13, 16, 55]",124820131162551,Cs1Al1H24S2O20
CsAlH24(SeO10)2,mp-24523,4.2024,-2.00636189,0.0,icsd-68908,"{55: 1, 13: 1, 1: 24, 34: 2, 8: 20}","[1, 8, 13, 34, 55]",124820131342551,Cs1Al1H24Se2O20
NaAlH2CO5,mp-644506,4.943,0.82828263,0.0,icsd-100140,"{11: 1, 13: 1, 1: 2, 6: 1, 8: 5}","[1, 6, 8, 11, 13]",126185111131,Na1Al1H2C1O5
KAlH2CO5,mp-644285,5.0845,0.52932433,0.0,icsd-153303,"{19: 1, 13: 1, 1: 2, 6: 1, 8: 5}","[1, 6, 8, 13, 19]",126185131191,K1Al1H2C1O5
Na7AlH2C4(O3F)4,mp-707443,4.805499999999999,0.44492619,0.0,icsd-77052,"{11: 7, 13: 1, 1: 2, 6: 4, 8: 12, 9: 4}","[1, 6, 8, 9, 11, 13]",126481294117131,Na7Al1H2C4O12F4
AlH2PbO2F3,mp-643387,4.496700000000001,1.65498767,0.0,icsd-79740,"{13: 1, 1: 2, 82: 1, 8: 2, 9: 3}","[1, 8, 9, 13, 82]",128293131821,Al1H2Pb1O2F3
Na3AlP2H2O9,mp-707530,4.4885,1.41451728,0.0,icsd-84643,"{11: 3, 13: 1, 15: 2, 1: 2, 8: 9}","[1, 8, 11, 13, 15]",1289113131152,Na3Al1P2H2O9
Al,mp-134,0.0,7.05880371,0.0,icsd-182727,{13: 1},[13],131,Al1
Y(Al5Fe)2,mp-16744,0.0,7.51321436,0.0,icsd-710082,"{39: 1, 13: 10, 26: 2}","[13, 26, 39]",1310262391,Y1Al10Fe2
Ce(Al5Fe)2,mp-1193938,0.0,8.27526243,0.0,icsd-188958,"{58: 1, 13: 10, 26: 2}","[13, 26, 58]",1310262581,Ce1Al10Fe2
Tb(Al5Fe)2,mp-1193564,0.0,7.50112403,0.0,icsd-190779,"{65: 1, 13: 10, 26: 2}","[13, 26, 65]",1310262651,Tb1Al10Fe2
Dy(Al5Fe)2,mp-1213056,0.0,7.49337862,0.0,pf-25155,"{66: 1, 13: 10, 26: 2}","[13, 26, 66]",1310262661,Dy1Al10Fe2
Ho(Al5Fe)2,mp-1212162,0.0,7.45741825,0.0,pf-35643,"{67: 1, 13: 10, 26: 2}","[13, 26, 67]",1310262671,Ho1Al10Fe2
Er(Al5Fe)2,mp-1212845,0.0,7.55718539,0.0,pf-4194,"{68: 1, 13: 10, 26: 2}","[13, 26, 68]",1310262681,Er1Al10Fe2
Tm(Al5Fe)2,mp-1208007,0.0,7.50156234,0.0,pf-14701,"{69: 1, 13: 10, 26: 2}","[13, 26, 69]",1310262691,Tm1Al10Fe2
Lu(Al5Fe)2,mp-1210893,0.0,7.4519779,0.0,pf-35726,"{71: 1, 13: 10, 26: 2}","[13, 26, 71]",1310262711,Lu1Al10Fe2
Th(Al5Fe)2,mp-568030,0.0,8.18116983,0.0,icsd-152354,"{90: 1, 13: 10, 26: 2}","[13, 26, 90]",1310262901,Th1Al10Fe2
U(Al5Fe)2,mp-20548,0.0,8.52316804,0.0,icsd-155072,"{92: 1, 13: 10, 26: 2}","[13, 26, 92]",1310262921,U1Al10Fe2
Y(Al5Ru)2,mp-1207698,0.0,7.64651729,0.0,pf-13372,"{39: 1, 13: 10, 44: 2}","[13, 39, 44]",1310391442,Y1Al10Ru2
Y(Al5Re)2,mp-1207859,0.0,7.38063396,0.0,pf-26142,"{39: 1, 13: 10, 75: 2}","[13, 39, 75]",1310391752,Y1Al10Re2
La(Al5Ru)2,mp-1211269,0.0,8.25604874,0.0,pf-23893,"{57: 1, 13: 10, 44: 2}","[13, 44, 57]",1310442571,La1Al10Ru2
Ce(Al5Ru)2,mp-31364,0.0,8.27001863,0.0,icsd-59912,"{58: 1, 13: 10, 44: 2}","[13, 44, 58]",1310442581,Ce1Al10Ru2
Pr(Al5Ru)2,mp-1193957,0.0,7.64039613,0.0,icsd-186913,"{59: 1, 13: 10, 44: 2}","[13, 44, 59]",1310442591,Pr1Al10Ru2
Nd(Al5Ru)2,mp-1209876,0.0,7.55712955,0.0,pf-13439,"{60: 1, 13: 10, 44: 2}","[13, 44, 60]",1310442601,Nd1Al10Ru2
Sm(Al5Ru)2,mp-1208900,0.0,7.5730189,0.0,pf-23964,"{62: 1, 13: 10, 44: 2}","[13, 44, 62]",1310442621,Sm1Al10Ru2
Gd(Al5Ru)2,mp-1192913,0.0,7.59813137,0.0,icsd-186914,"{64: 1, 13: 10, 44: 2}","[13, 44, 64]",1310442641,Gd1Al10Ru2
Tb(Al5Ru)2,mp-1208361,0.0,7.58220056,0.0,pf-2988,"{65: 1, 13: 10, 44: 2}","[13, 44, 65]",1310442651,Tb1Al10Ru2
Ho(Al5Ru)2,mp-1212388,0.0,7.56033251,0.0,pf-13509,"{67: 1, 13: 10, 44: 2}","[13, 44, 67]",1310442671,Ho1Al10Ru2
Er(Al5Ru)2,mp-1212826,0.0,7.55604637,0.0,pf-24026,"{68: 1, 13: 10, 44: 2}","[13, 44, 68]",1310442681,Er1Al10Ru2
U(Al5Ru)2,mp-1193796,0.0,8.88020462,0.0,icsd-182114,"{92: 1, 13: 10, 44: 2}","[13, 44, 92]",1310442921,U1Al10Ru2
Ba7Al10,mp-570400,0.0,3.81180333,0.0,icsd-420092,"{56: 7, 13: 10}","[13, 56]",1310567,Ba7Al10
Pr(Al5Os)2,mp-1209309,0.0,7.65669709,0.0,pf-12152,"{59: 1, 13: 10, 76: 2}","[13, 59, 76]",1310591762,Pr1Al10Os2
Nd(Al5Os)2,mp-1209871,0.0,7.58345198,0.0,pf-22693,"{60: 1, 13: 10, 76: 2}","[13, 60, 76]",1310601762,Nd1Al10Os2
Tb(Al5Re)2,mp-1208386,0.0,7.28604873,0.0,pf-23461,"{65: 1, 13: 10, 75: 2}","[13, 65, 75]",1310651752,Tb1Al10Re2
Dy(Al5Re)2,mp-1213146,0.0,7.2585897,0.0,pf-15638,"{66: 1, 13: 10, 75: 2}","[13, 66, 75]",1310661752,Dy1Al10Re2
Ho(Al5Re)2,mp-1212490,0.0,7.30179498,0.0,pf-26214,"{67: 1, 13: 10, 75: 2}","[13, 67, 75]",1310671752,Ho1Al10Re2
Er(Al5Re)2,mp-1213047,0.0,7.28631566,0.0,pf-36724,"{68: 1, 13: 10, 75: 2}","[13, 68, 75]",1310681752,Er1Al10Re2
Tm(Al5Re)2,mp-1208145,0.0,7.338888,0.0,pf-5255,"{69: 1, 13: 10, 75: 2}","[13, 69, 75]",1310691752,Tm1Al10Re2
Lu(Al5Re)2,mp-1211408,0.0,7.31208571,0.0,pf-26297,"{71: 1, 13: 10, 75: 2}","[13, 71, 75]",1310711752,Lu1Al10Re2
Lu(Al5Os)2,mp-1192563,0.0,7.58812008,0.0,icsd-238041,"{71: 1, 13: 10, 76: 2}","[13, 71, 76]",1310711762,Lu1Al10Os2
Al11(CoSi)6,mp-1214980,0.0,8.5524078,0.0,pf-11787,"{13: 11, 27: 6, 14: 6}","[13, 14, 27]",1311146276,Al11Co6Si6
Mn4Al11,mp-2856,0.0,7.87858887,0.0,icsd-10509,"{25: 4, 13: 11}","[13, 25]",1311254,Mn4Al11
CaAlSi,mp-567191,0.0,5.28209704,0.0,icsd-155192,"{20: 1, 13: 1, 14: 1}","[13, 14, 20]",131141201,Ca1Al1Si1
SrAlSi,mp-3698,0.0,4.45072699,0.0,icsd-162865,"{38: 1, 13: 1, 14: 1}","[13, 14, 38]",131141381,Sr1Al1Si1
YAlSi,mp-31080,0.0,6.31935613,0.0,icsd-99138,"{39: 1, 13: 1, 14: 1}","[13, 14, 39]",131141391,Y1Al1Si1
BaAlSi,mp-13149,0.0,3.97888423,0.0,icsd-162866,"{56: 1, 13: 1, 14: 1}","[13, 14, 56]",131141561,Ba1Al1Si1
CeAlSi,mp-1206597,0.0,7.38424189,0.0,pf-36654,"{58: 1, 13: 1, 14: 1}","[13, 14, 58]",131141581,Ce1Al1Si1
SmAlSi,mp-12804,0.0,5.96446281,0.0,icsd-151717,"{62: 1, 13: 1, 14: 1}","[13, 14, 62]",131141621,Sm1Al1Si1
DyAlSi,mp-1206330,0.0,6.27242127,0.0,pf-296,"{66: 1, 13: 1, 14: 1}","[13, 14, 66]",131141661,Dy1Al1Si1
HoAlSi,mp-1206025,0.0,6.23170319,0.0,pf-10826,"{67: 1, 13: 1, 14: 1}","[13, 14, 67]",131141671,Ho1Al1Si1
ErAlSi,mp-1206326,0.0,6.28936298,0.0,pf-22560,"{68: 1, 13: 1, 14: 1}","[13, 14, 68]",131141681,Er1Al1Si1
TmAlSi,mp-571506,0.0,6.29925639,0.0,icsd-415372,"{69: 1, 13: 1, 14: 1}","[13, 14, 69]",131141691,Tm1Al1Si1
LuAlSi,mp-567229,0.0,6.35964766,0.0,icsd-415373,"{71: 1, 13: 1, 14: 1}","[13, 14, 71]",131141711,Lu1Al1Si1
Sc2AlSi2,mp-10676,0.0,7.0677018,0.0,icsd-52653,"{21: 2, 13: 1, 14: 2}","[13, 14, 21]",131142212,Sc2Al1Si2
Al(CoSi)2,mp-10010,0.0,9.14765148,0.0,icsd-43353,"{13: 1, 27: 2, 14: 2}","[13, 14, 27]",131142272,Al1Co2Si2
Y2AlSi2,mp-10527,0.0,5.71516606,0.0,icsd-92450,"{39: 2, 13: 1, 14: 2}","[13, 14, 39]",131142392,Y2Al1Si2
LaAlSi2,mp-5330,0.0,7.81416942,0.0,icsd-94501,"{57: 1, 13: 1, 14: 2}","[13, 14, 57]",131142571,La1Al1Si2
PrAlSi2,mp-571554,0.0,6.19761853,0.0,icsd-152802,"{59: 1, 13: 1, 14: 2}","[13, 14, 59]",131142591,Pr1Al1Si2
Ho2AlSi2,mp-10528,0.0,5.59150925,0.0,icsd-92451,"{67: 2, 13: 1, 14: 2}","[13, 14, 67]",131142672,Ho2Al1Si2
Er2AlSi2,mp-10529,0.0,5.64367038,0.0,icsd-92452,"{68: 2, 13: 1, 14: 2}","[13, 14, 68]",131142682,Er2Al1Si2
Tm2AlSi2,mp-10530,0.0,5.65446602,0.0,icsd-92453,"{69: 2, 13: 1, 14: 2}","[13, 14, 69]",131142692,Tm2Al1Si2
Lu2AlSi2,mp-10531,0.0,5.75243691,0.0,icsd-92454,"{71: 2, 13: 1, 14: 2}","[13, 14, 71]",131142712,Lu2Al1Si2
AlP,mp-1550,1.6294000000000004,4.36978098,0.0,icsd-52649,"{13: 1, 15: 1}","[13, 15]",131151,Al1P1
AlPS4,mp-1102285,2.8338,1.49607681,0.0,icsd-428184,"{13: 1, 15: 1, 16: 4}","[13, 15, 16]",131151164,Al1P1S4
AlPI8,mp-568423,1.4267999999999998,0.02802187,0.0,icsd-35403,"{13: 1, 15: 1, 53: 8}","[13, 15, 53]",131151538,Al1P1I8
AlPPt5,mp-1025271,0.0,8.31185154,0.0,icsd-609024,"{13: 1, 15: 1, 78: 5}","[13, 15, 78]",131151785,Al1P1Pt5
K3AlP2,mp-541684,0.6989999999999998,1.93448818,0.0,icsd-300130,"{19: 3, 13: 1, 15: 2}","[13, 15, 19]",131152193,K3Al1P2
AlP2I9,mp-28046,1.6553,0.37649142,0.0,icsd-35404,"{13: 1, 15: 2, 53: 9}","[13, 15, 53]",131152539,Al1P2I9
Cs3AlP2,mp-619651,0.9749000000000003,2.31094304,0.0,icsd-300131,"{55: 3, 13: 1, 15: 2}","[13, 15, 55]",131152553,Cs3Al1P2
Ba3AlP3,mp-1192373,0.6886999999999999,3.04624922,0.0,icsd-430169,"{56: 3, 13: 1, 15: 3}","[13, 15, 56]",131153563,Ba3Al1P3
La3Al11,mp-16505,0.0,7.70779201,0.0,icsd-608281,"{57: 3, 13: 11}","[13, 57]",1311573,La3Al11
Ce3Al11,mp-1213865,0.0,7.54499418,0.0,pf-17572,"{58: 3, 13: 11}","[13, 58]",1311583,Ce3Al11
AlBiSCl4,mp-561350,2.8305,0.03447033,0.0,icsd-414154,"{13: 1, 83: 1, 16: 1, 17: 4}","[13, 16, 17, 83]",131161174831,Al1Bi1S1Cl4
AlSCl7,mp-555805,2.4961,-1.08248774,0.0,icsd-35685,"{13: 1, 16: 1, 17: 7}","[13, 16, 17]",131161177,Al1S1Cl7
AlCuS2,mp-4979,1.6756000000000002,5.20145593,0.0,icsd-28733,"{13: 1, 29: 1, 16: 2}","[13, 16, 29]",131162291,Al1Cu1S2
AlAgS2,mp-5782,1.8992,2.88185789,0.0,icsd-604692,"{13: 1, 47: 1, 16: 2}","[13, 16, 47]",131162471,Al1Ag1S2
AlTlS2,mp-985477,2.1718,3.07202068,0.0,icsd-609264,"{13: 1, 81: 1, 16: 2}","[13, 16, 81]",131162811,Al1Tl1S2
AlAs3S5Cl4,mp-558360,2.2534,0.2144534,0.0,icsd-415503,"{13: 1, 33: 3, 16: 5, 17: 4}","[13, 16, 17, 33]",131165174333,Al1As3S5Cl4
La3MnAlS7,mp-866692,0.0,6.36404485,0.0,icsd-608303,"{57: 3, 25: 1, 13: 1, 16: 7}","[13, 16, 25, 57]",131167251573,La3Mn1Al1S7
Pr3MnAlS7,mp-867323,0.0,4.64085477,0.0,icsd-608498,"{59: 3, 25: 1, 13: 1, 16: 7}","[13, 16, 25, 59]",131167251593,Pr3Mn1Al1S7
Nd3MnAlS7,mp-864652,0.4429999999999996,4.7863621,0.0,icsd-608480,"{60: 3, 25: 1, 13: 1, 16: 7}","[13, 16, 25, 60]",131167251603,Nd3Mn1Al1S7
Sm3MnAlS7,mp-867965,0.4783999999999997,4.75643103,0.0,icsd-608512,"{62: 3, 25: 1, 13: 1, 16: 7}","[13, 16, 25, 62]",131167251623,Sm3Mn1Al1S7
Ce3AlFeS7,mp-1192925,0.0,7.53297624,0.0,icsd-606457,"{58: 3, 13: 1, 26: 1, 16: 7}","[13, 16, 26, 58]",131167261583,Ce3Al1Fe1S7
AlCl3,mp-25469,5.263,0.05888689,0.0,icsd-39566,"{13: 1, 17: 3}","[13, 17]",131173,Al1Cl3
KAlCl4,mp-27755,5.286300000000001,-1.58750309,0.0,icsd-1704,"{19: 1, 13: 1, 17: 4}","[13, 17, 19]",131174191,K1Al1Cl4
AlCuCl4,mp-28020,2.5112000000000005,1.61529712,0.0,icsd-35050,"{13: 1, 29: 1, 17: 4}","[13, 17, 29]",131174291,Al1Cu1Cl4
AlAs3(SeCl)4,mp-567734,2.3258,-0.36898879,0.0,icsd-415504,"{13: 1, 33: 3, 34: 4, 17: 4}","[13, 17, 33, 34]",131174333344,Al1As3Se4Cl4
AlBiSeCl4,mp-637206,2.5424,0.1107556,0.0,icsd-414155,"{13: 1, 83: 1, 34: 1, 17: 4}","[13, 17, 34, 83]",131174341831,Al1Bi1Se1Cl4
Al(SeCl2)2,mp-574529,1.3809,-1.26069221,0.0,icsd-201221,"{13: 1, 34: 2, 17: 4}","[13, 17, 34]",131174342,Al1Se2Cl4
AlSb2(SeCl2)2,mp-1194909,1.122,1.66711261,0.0,icsd-428755,"{13: 1, 51: 2, 34: 2, 17: 4}","[13, 17, 34, 51]",131174342512,Al1Sb2Se2Cl4
Al(SeCl)4,mp-683984,1.1038000000000001,-0.41099119,0.0,icsd-26093,"{13: 1, 34: 4, 17: 4}","[13, 17, 34]",131174344,Al1Se4Cl4
AlSb2Te2BrCl4,mp-1204489,0.5731999999999999,3.06759583,0.0,icsd-174524,"{13: 1, 51: 2, 52: 2, 35: 1, 17: 4}","[13, 17, 35, 51, 52]",131174351512522,Al1Sb2Te2Br1Cl4
RbAlCl4,mp-1209422,5.2186,3.5772891,0.0,pf-19191,"{37: 1, 13: 1, 17: 4}","[13, 17, 37]",131174371,Rb1Al1Cl4
AlCdCl4,mp-1102961,2.761,-0.42540743,0.0,icsd-62038,"{13: 1, 48: 1, 17: 4}","[13, 17, 48]",131174481,Al1Cd1Cl4
AlInCl4,mp-638061,4.186100000000001,-0.1284553,0.0,icsd-170790,"{13: 1, 49: 1, 17: 4}","[13, 17, 49]",131174491,Al1In1Cl4
AlHg2SbCl4,mp-568001,0.8372,-0.00694577,0.0,icsd-409933,"{13: 1, 80: 2, 51: 1, 17: 4}","[13, 17, 51, 80]",131174511802,Al1Hg2Sb1Cl4
AlSb2(TeCl2)2,mp-567743,0.7508999999999997,2.42428752,0.0,icsd-414297,"{13: 1, 51: 2, 52: 2, 17: 4}","[13, 17, 51, 52]",131174512522,Al1Sb2Te2Cl4
AlBiTeCl4,mp-628665,2.1036,0.55077339,0.0,icsd-411714,"{13: 1, 83: 1, 52: 1, 17: 4}","[13, 17, 52, 83]",131174521831,Al1Bi1Te1Cl4
Al(TeCl2)2,mp-540628,1.3285,-0.16609279,0.0,icsd-10322,"{13: 1, 52: 2, 17: 4}","[13, 17, 52]",131174522,Al1Te2Cl4
CsAlCl4,mp-27260,5.3909,-1.53600458,0.0,icsd-8118,"{55: 1, 13: 1, 17: 4}","[13, 17, 55]",131174551,Cs1Al1Cl4
AlTlCl4,mp-567716,4.7337,-0.63989662,0.0,icsd-419828,"{13: 1, 81: 1, 17: 4}","[13, 17, 81]",131174811,Al1Tl1Cl4
Al(BiCl)4,mp-1198361,1.4598000000000002,2.0476112,0.0,icsd-426517,"{13: 1, 83: 4, 17: 4}","[13, 17, 83]",131174834,Al1Bi4Cl4
Al11Re4,mp-1214889,0.0,7.96047719,0.0,pf-23718,"{13: 11, 75: 4}","[13, 75]",1311754,Al11Re4
AlICl6,mp-27935,2.291,-0.95823993,0.0,icsd-26510,"{13: 1, 53: 1, 17: 6}","[13, 17, 53]",131176531,Al1I1Cl6
Al(ICl2)3,mp-672352,1.7106,-0.4056328,0.0,icsd-26403,"{13: 1, 53: 3, 17: 6}","[13, 17, 53]",131176533,Al1I3Cl6
AlBiCl6,mp-672273,3.7506000000000004,-1.07318618,0.0,icsd-414261,"{13: 1, 83: 1, 17: 6}","[13, 17, 83]",131176831,Al1Bi1Cl6
AlSeCl7,mp-1205403,2.5979,1.54014386,0.0,icsd-9064,"{13: 1, 34: 1, 17: 7}","[13, 17, 34]",131177341,Al1Se1Cl7
AlTeCl7,mp-573751,3.2352,-1.2292216,0.0,icsd-26043,"{13: 1, 52: 1, 17: 7}","[13, 17, 52]",131177521,Al1Te1Cl7