formula,material_id,band_gap,efermi,energy_above_hull,database_IDs,comp_atoms,sorted_keys_comp_atoms,comp_number,new_formula
Ba3Er(BO3)3,mp-1214885,3.8598999999999997,2.06538599,0.0,pf-16421,"{56: 3, 68: 1, 5: 3, 8: 9}","[5, 8, 56, 68]",5389563681,Ba3Er1B3O9
Ba3Tm(BO3)3,mp-14385,3.8436000000000003,1.97555337,0.0,icsd-39742,"{56: 3, 69: 1, 5: 3, 8: 9}","[5, 8, 56, 69]",5389563691,Ba3Tm1B3O9
Ba3Lu(BO3)3,mp-14386,3.8583,1.91001276,0.0,icsd-39744,"{56: 3, 71: 1, 5: 3, 8: 9}","[5, 8, 56, 71]",5389563711,Ba3Lu1B3O9
Ba7B4S13,mp-562764,2.5225,1.86209067,0.0,icsd-170284,"{56: 7, 5: 4, 16: 13}","[5, 16, 56]",541613567,Ba7B4S13
La4B4Cl5,mp-569894,0.0,6.82631495,0.0,icsd-418483,"{57: 4, 5: 4, 17: 5}","[5, 17, 57]",54175574,La4B4Cl5
CaB4,mp-1213975,0.0,5.05290504,0.0,pf-40342,"{20: 1, 5: 4}","[5, 20]",54201,Ca1B4
ScFeB4,mp-1191106,0.0,7.15143174,0.0,icsd-614180,"{21: 1, 26: 1, 5: 4}","[5, 21, 26]",54211261,Sc1Fe1B4
ScCoB4,mp-1191630,0.0,7.18675871,0.0,icsd-613278,"{21: 1, 27: 1, 5: 4}","[5, 21, 27]",54211271,Sc1Co1B4
ScB4Ir3,mp-10114,0.0,8.76634086,0.0,icsd-44424,"{21: 1, 5: 4, 77: 3}","[5, 21, 77]",54211773,Sc1B4Ir3
Sc2B4Ru5,mp-1209048,0.0,7.87081517,0.0,pf-25451,"{21: 2, 5: 4, 44: 5}","[5, 21, 44]",54212445,Sc2B4Ru5
Ti3B4,mp-1025170,0.0,7.40271569,0.0,icsd-615598,"{22: 3, 5: 4}","[5, 22]",54223,Ti3B4
YVB4,mp-1191641,0.0,6.22731711,0.0,icsd-615679,"{39: 1, 23: 1, 5: 4}","[5, 23, 39]",54231391,Y1V1B4
GdVB4,mp-1191160,0.0,5.40330663,0.0,icsd-614392,"{64: 1, 23: 1, 5: 4}","[5, 23, 64]",54231641,Gd1V1B4
TbVB4,mp-867309,0.0,6.15366708,0.0,icsd-615551,"{65: 1, 23: 1, 5: 4}","[5, 23, 65]",54231651,Tb1V1B4
DyVB4,mp-1191899,0.0,6.12699455,0.0,icsd-613693,"{66: 1, 23: 1, 5: 4}","[5, 23, 66]",54231661,Dy1V1B4
HoVB4,mp-973524,0.0,6.10826459,0.0,icsd-658656,"{67: 1, 23: 1, 5: 4}","[5, 23, 67]",54231671,Ho1V1B4
ErVB4,mp-10983,0.0,6.12806818,0.0,icsd-613825,"{68: 1, 23: 1, 5: 4}","[5, 23, 68]",54231681,Er1V1B4
V3B4,mp-569270,0.0,8.12667364,0.0,icsd-615668,"{23: 3, 5: 4}","[5, 23]",54233,V3B4
CrB4,mp-1078278,0.0,7.74642906,0.0,icsd-186851,"{24: 1, 5: 4}","[5, 24]",54241,Cr1B4
YCrB4,mp-20450,0.15890000000000004,6.56229408,0.0,icsd-16171,"{39: 1, 24: 1, 5: 4}","[5, 24, 39]",54241391,Y1Cr1B4
SmCrB4,mp-1191882,0.3606999999999996,6.02069513,0.0,icsd-613554,"{62: 1, 24: 1, 5: 4}","[5, 24, 62]",54241621,Sm1Cr1B4
GdCrB4,mp-1190957,0.25510000000000055,6.11881946,0.0,icsd-613512,"{64: 1, 24: 1, 5: 4}","[5, 24, 64]",54241641,Gd1Cr1B4
TbCrB4,mp-1190703,0.37810000000000077,6.19705232,0.0,icsd-613559,"{65: 1, 24: 1, 5: 4}","[5, 24, 65]",54241651,Tb1Cr1B4
DyCrB4,mp-1191253,0.3833000000000002,6.20928539,0.0,icsd-658658,"{66: 1, 24: 1, 5: 4}","[5, 24, 66]",54241661,Dy1Cr1B4
HoCrB4,mp-1191543,0.16779999999999973,6.3915491,0.0,icsd-658659,"{67: 1, 24: 1, 5: 4}","[5, 24, 67]",54241671,Ho1Cr1B4
ErCrB4,mp-985700,0.16109999999999935,6.50491949,0.0,icsd-613495,"{68: 1, 24: 1, 5: 4}","[5, 24, 68]",54241681,Er1Cr1B4
TmCrB4,mp-1191371,0.19639999999999969,6.46897816,0.0,icsd-613561,"{69: 1, 24: 1, 5: 4}","[5, 24, 69]",54241691,Tm1Cr1B4
LuCrB4,mp-1190663,0.20979999999999954,6.39931599,0.0,icsd-613517,"{71: 1, 24: 1, 5: 4}","[5, 24, 71]",54241711,Lu1Cr1B4
ThCrB4,mp-22528,0.0,8.2941116,0.0,icsd-81542,"{90: 1, 24: 1, 5: 4}","[5, 24, 90]",54241901,Th1Cr1B4
UCrB4,mp-1191170,0.0,10.0393045,0.0,icsd-613562,"{92: 1, 24: 1, 5: 4}","[5, 24, 92]",54241921,U1Cr1B4
MnB4,mp-1078253,0.0,7.93951429,0.0,icsd-425100,"{25: 1, 5: 4}","[5, 25]",54251,Mn1B4
YMnB4,mp-1191988,0.0,6.55223361,0.0,icsd-614788,"{39: 1, 25: 1, 5: 4}","[5, 25, 39]",54251391,Y1Mn1B4
CeMnB4,mp-1213778,0.0,8.45736156,0.0,pf-31101,"{58: 1, 25: 1, 5: 4}","[5, 25, 58]",54251581,Ce1Mn1B4
GdMnB4,mp-505546,0.0,5.8269035,0.0,icsd-614344,"{64: 1, 25: 1, 5: 4}","[5, 25, 64]",54251641,Gd1Mn1B4
TbMnB4,mp-1191670,0.0,6.48677262,0.0,icsd-614776,"{65: 1, 25: 1, 5: 4}","[5, 25, 65]",54251651,Tb1Mn1B4
DyMnB4,mp-1190895,0.0,6.52858164,0.0,icsd-613643,"{66: 1, 25: 1, 5: 4}","[5, 25, 66]",54251661,Dy1Mn1B4
HoMnB4,mp-978098,0.0,6.46139152,0.0,icsd-614473,"{67: 1, 25: 1, 5: 4}","[5, 25, 67]",54251671,Ho1Mn1B4
ErMnB4,mp-1190787,0.0,6.57787564,0.0,icsd-613773,"{68: 1, 25: 1, 5: 4}","[5, 25, 68]",54251681,Er1Mn1B4
TmMnB4,mp-1207706,0.0,6.44603774,0.0,pf-36978,"{69: 1, 25: 1, 5: 4}","[5, 25, 69]",54251691,Tm1Mn1B4
UMnB4,mp-1190612,0.0,10.04982269,0.0,icsd-614778,"{92: 1, 25: 1, 5: 4}","[5, 25, 92]",54251921,U1Mn1B4
Ta(MnB2)2,mp-1077930,0.0,7.84100003,0.0,icsd-614775,"{73: 1, 25: 2, 5: 4}","[5, 25, 73]",54252731,Ta1Mn2B4
YFeB4,mp-1207634,0.0,6.54047017,0.0,pf-34950,"{39: 1, 26: 1, 5: 4}","[5, 26, 39]",54261391,Y1Fe1B4
SmFeB4,mp-20416,0.0,6.10355189,0.0,icsd-23293,"{62: 1, 26: 1, 5: 4}","[5, 26, 62]",54261621,Sm1Fe1B4
GdFeB4,mp-866656,0.0,6.22274104,0.0,icsd-613941,"{64: 1, 26: 1, 5: 4}","[5, 26, 64]",54261641,Gd1Fe1B4
TbFeB4,mp-1208346,0.0,6.42086478,0.0,pf-33594,"{65: 1, 26: 1, 5: 4}","[5, 26, 65]",54261651,Tb1Fe1B4
DyFeB4,mp-1191987,0.0,6.43131277,0.0,icsd-613623,"{66: 1, 26: 1, 5: 4}","[5, 26, 66]",54261661,Dy1Fe1B4
HoFeB4,mp-1212115,0.0,6.39050493,0.0,pf-12637,"{67: 1, 26: 1, 5: 4}","[5, 26, 67]",54261671,Ho1Fe1B4
ErFeB4,mp-1191434,0.0,6.46420926,0.0,icsd-613744,"{68: 1, 26: 1, 5: 4}","[5, 26, 68]",54261681,Er1Fe1B4
TmFeB4,mp-1207990,0.0,6.43721209,0.0,pf-33665,"{69: 1, 26: 1, 5: 4}","[5, 26, 69]",54261691,Tm1Fe1B4
LuFeB4,mp-1191710,0.0,6.46091607,0.0,icsd-614015,"{71: 1, 26: 1, 5: 4}","[5, 26, 71]",54261711,Lu1Fe1B4
UFeB4,mp-1191051,0.0,10.09227463,0.0,icsd-614246,"{92: 1, 26: 1, 5: 4}","[5, 26, 92]",54261921,U1Fe1B4
Ce(FeB)4,mp-1006322,0.0,7.26623123,0.0,icsd-612769,"{58: 1, 26: 4, 5: 4}","[5, 26, 58]",54264581,Ce1Fe4B4
Pr(FeB)4,mp-1188734,0.0,5.81314103,0.0,icsd-614153,"{59: 1, 26: 4, 5: 4}","[5, 26, 59]",54264591,Pr1Fe4B4
Nd(FeB)4,mp-1106404,0.0,5.80867677,0.0,icsd-614066,"{60: 1, 26: 4, 5: 4}","[5, 26, 60]",54264601,Nd1Fe4B4
Gd3Co11B4,mp-605854,0.0,5.1071028,0.0,icsd-656892,"{64: 3, 27: 11, 5: 4}","[5, 27, 64]",542711643,Gd3Co11B4
YCoB4,mp-1207600,0.0,6.44842249,0.0,pf-12715,"{39: 1, 27: 1, 5: 4}","[5, 27, 39]",54271391,Y1Co1B4
GdCoB4,mp-21230,0.0,5.93857916,0.0,icsd-417873,"{64: 1, 27: 1, 5: 4}","[5, 27, 64]",54271641,Gd1Co1B4
TbCoB4,mp-1208336,0.0,6.33906943,0.0,pf-925,"{65: 1, 27: 1, 5: 4}","[5, 27, 65]",54271651,Tb1Co1B4
DyCoB4,mp-1212868,0.0,6.33113944,0.0,pf-11394,"{66: 1, 27: 1, 5: 4}","[5, 27, 66]",54271661,Dy1Co1B4
HoCoB4,mp-1212117,0.0,6.32290634,0.0,pf-21974,"{67: 1, 27: 1, 5: 4}","[5, 27, 67]",54271671,Ho1Co1B4
ErCoB4,mp-1213100,0.0,6.31946111,0.0,pf-32416,"{68: 1, 27: 1, 5: 4}","[5, 27, 68]",54271681,Er1Co1B4
TmCoB4,mp-1207976,0.0,6.34971701,0.0,pf-1012,"{69: 1, 27: 1, 5: 4}","[5, 27, 69]",54271691,Tm1Co1B4
LuCoB4,mp-1210846,0.0,6.43264807,0.0,pf-11472,"{71: 1, 27: 1, 5: 4}","[5, 27, 71]",54271711,Lu1Co1B4
UCoB4,mp-1191070,0.0,10.02188311,0.0,icsd-613378,"{92: 1, 27: 1, 5: 4}","[5, 27, 92]",54271921,U1Co1B4
Y(CoB)4,mp-1105964,0.0,6.36000412,0.0,icsd-613410,"{39: 1, 27: 4, 5: 4}","[5, 27, 39]",54274391,Y1Co4B4
Pr(CoB)4,mp-975663,0.0,6.03022983,0.0,icsd-613250,"{59: 1, 27: 4, 5: 4}","[5, 27, 59]",54274591,Pr1Co4B4
Nd(CoB)4,mp-581471,0.0,5.88505956,0.0,icsd-613197,"{60: 1, 27: 4, 5: 4}","[5, 27, 60]",54274601,Nd1Co4B4
Sm(CoB)4,mp-1105839,0.0,5.85114942,0.0,icsd-613302,"{62: 1, 27: 4, 5: 4}","[5, 27, 62]",54274621,Sm1Co4B4
Gd(CoB)4,mp-1181496,0.0,6.20359726,0.0,icsd-613081,"{64: 1, 27: 4, 5: 4}","[5, 27, 64]",54274641,Gd1Co4B4
Tb(CoB)4,mp-1106036,0.0,6.35121326,0.0,icsd-613345,"{65: 1, 27: 4, 5: 4}","[5, 27, 65]",54274651,Tb1Co4B4
Dy(CoB)4,mp-1189595,0.0,6.28326675,0.0,icsd-612908,"{66: 1, 27: 4, 5: 4}","[5, 27, 66]",54274661,Dy1Co4B4
Ho(CoB)4,mp-1188650,0.0,6.21756145,0.0,icsd-613122,"{67: 1, 27: 4, 5: 4}","[5, 27, 67]",54274671,Ho1Co4B4
Er(CoB)4,mp-1189246,0.0,6.20302296,0.0,icsd-612932,"{68: 1, 27: 4, 5: 4}","[5, 27, 68]",54274681,Er1Co4B4
Tm(CoB)4,mp-1190291,0.0,6.16830657,0.0,icsd-613364,"{69: 1, 27: 4, 5: 4}","[5, 27, 69]",54274691,Tm1Co4B4
Lu(CoB)4,mp-1189538,0.0,6.23130843,0.0,icsd-613152,"{71: 1, 27: 4, 5: 4}","[5, 27, 71]",54274711,Lu1Co4B4
Ga3B4Pt9,mp-28869,0.0,6.90361631,0.0,icsd-74720,"{31: 3, 5: 4, 78: 9}","[5, 31, 78]",54313789,Ga3B4Pt9
Ba2B4Se13,mp-30105,1.3329999999999997,2.21840448,0.0,icsd-411968,"{56: 2, 5: 4, 34: 13}","[5, 34, 56]",543413562,Ba2B4Se13
Ba7B4Se13,mp-583221,2.1147,1.51527594,0.0,icsd-411531,"{56: 7, 5: 4, 34: 13}","[5, 34, 56]",543413567,Ba7B4Se13
Tb16B4Br23,mp-29954,0.0,3.07971273,0.0,icsd-410994,"{65: 16, 5: 4, 35: 23}","[5, 35, 65]",5435236516,Tb16B4Br23
La4B4Br5,mp-510357,0.0,5.18574308,0.0,icsd-405291,"{57: 4, 5: 4, 35: 5}","[5, 35, 57]",54355574,La4B4Br5
YB4,mp-637,0.0,6.01879864,0.0,icsd-615709,"{39: 1, 5: 4}","[5, 39]",54391,Y1B4
YB4Mo,mp-7691,0.2774000000000001,6.86930065,0.0,icsd-20081,"{39: 1, 5: 4, 42: 1}","[5, 39, 42]",54391421,Y1B4Mo1
YB4Ru,mp-1190832,0.0,7.07633512,0.0,icsd-615400,"{39: 1, 5: 4, 44: 1}","[5, 39, 44]",54391441,Y1B4Ru1
Y(BRu)4,mp-10138,0.0,6.98576297,0.0,icsd-44582,"{39: 1, 5: 4, 44: 4}","[5, 39, 44]",54391444,Y1B4Ru4
YB4Rh,mp-13341,0.0,6.95741234,0.0,icsd-419358,"{39: 1, 5: 4, 45: 1}","[5, 39, 45]",54391451,Y1B4Rh1
YB4W,mp-1190755,0.569,6.35847423,0.0,icsd-615702,"{39: 1, 5: 4, 74: 1}","[5, 39, 74]",54391741,Y1B4W1
YReB4,mp-865727,0.0,7.09352557,0.0,icsd-615278,"{39: 1, 75: 1, 5: 4}","[5, 39, 75]",54391751,Y1Re1B4
YB4Os,mp-980205,0.0,7.29751232,0.0,icsd-615147,"{39: 1, 5: 4, 76: 1}","[5, 39, 76]",54391761,Y1B4Os1
Y(BIr)4,mp-981396,0.0,7.66976736,0.0,icsd-614580,"{39: 1, 5: 4, 77: 4}","[5, 39, 77]",54391774,Y1B4Ir4
ZrB4Ir3,mp-1190085,0.0,8.79295452,0.0,icsd-614583,"{40: 1, 5: 4, 77: 3}","[5, 40, 77]",54401773,Zr1B4Ir3
Nb3B4,mp-10255,0.0,7.46395444,0.0,icsd-656212,"{41: 3, 5: 4}","[5, 41]",54413,Nb3B4
GdB4Mo,mp-1190272,0.0,6.63125897,0.0,icsd-614347,"{64: 1, 5: 4, 42: 1}","[5, 42, 64]",54421641,Gd1B4Mo1
TbB4Mo,mp-1191349,0.5646000000000004,6.48340652,0.0,icsd-614843,"{65: 1, 5: 4, 42: 1}","[5, 42, 65]",54421651,Tb1B4Mo1
DyB4Mo,mp-864993,0.2812999999999999,6.87944532,0.0,icsd-613645,"{66: 1, 5: 4, 42: 1}","[5, 42, 66]",54421661,Dy1B4Mo1
HoB4Mo,mp-1191115,0.5762,6.45062632,0.0,icsd-614475,"{67: 1, 5: 4, 42: 1}","[5, 42, 67]",54421671,Ho1B4Mo1
ErB4Mo,mp-1190816,0.5880999999999998,6.48256778,0.0,icsd-613775,"{68: 1, 5: 4, 42: 1}","[5, 42, 68]",54421681,Er1B4Mo1
ThB4Mo,mp-5557,0.0,8.53291261,0.0,icsd-108898,"{90: 1, 5: 4, 42: 1}","[5, 42, 90]",54421901,Th1B4Mo1
PuB4Mo,mp-1190919,0.0,10.05588472,0.0,icsd-614831,"{94: 1, 5: 4, 42: 1}","[5, 42, 94]",54421941,Pu1B4Mo1
PuTcB4,mp-1191553,0.0,10.24047,0.0,icsd-615233,"{94: 1, 43: 1, 5: 4}","[5, 43, 94]",54431941,Pu1Tc1B4
EuB4Ru,mp-1191457,0.0,6.19426011,0.0,icsd-420990,"{63: 1, 5: 4, 44: 1}","[5, 44, 63]",54441631,Eu1B4Ru1
GdB4Ru,mp-1192291,0.0,6.48489905,0.0,icsd-614384,"{64: 1, 5: 4, 44: 1}","[5, 44, 64]",54441641,Gd1B4Ru1
TbB4Ru,mp-867230,0.0,7.04280834,0.0,icsd-615371,"{65: 1, 5: 4, 44: 1}","[5, 44, 65]",54441651,Tb1B4Ru1
DyB4Ru,mp-984836,0.0,6.9524076,0.0,icsd-613685,"{66: 1, 5: 4, 44: 1}","[5, 44, 66]",54441661,Dy1B4Ru1
HoB4Ru,mp-974392,0.0,6.91925498,0.0,icsd-614507,"{67: 1, 5: 4, 44: 1}","[5, 44, 67]",54441671,Ho1B4Ru1
ErB4Ru,mp-1191359,0.0,6.94826181,0.0,icsd-613817,"{68: 1, 5: 4, 44: 1}","[5, 44, 68]",54441681,Er1B4Ru1
TmB4Ru,mp-971813,0.0,6.95032465,0.0,icsd-615383,"{69: 1, 5: 4, 44: 1}","[5, 44, 69]",54441691,Tm1B4Ru1
LuB4Ru,mp-1191771,0.0,6.95280583,0.0,icsd-614714,"{71: 1, 5: 4, 44: 1}","[5, 44, 71]",54441711,Lu1B4Ru1
UB4Ru,mp-1103253,0.0,10.48855247,0.0,icsd-615390,"{92: 1, 5: 4, 44: 1}","[5, 44, 92]",54441921,U1B4Ru1
PuB4Ru,mp-1191620,0.0,10.44283583,0.0,icsd-615230,"{94: 1, 5: 4, 44: 1}","[5, 44, 94]",54441941,Pu1B4Ru1
La(BRu)4,mp-7347,0.0,7.88909713,0.0,icsd-8078,"{57: 1, 5: 4, 44: 4}","[5, 44, 57]",54444571,La1B4Ru4
Ce(BRu)4,mp-1201565,0.0,8.20492162,0.0,icsd-612855,"{58: 1, 5: 4, 44: 4}","[5, 44, 58]",54444581,Ce1B4Ru4
Pr(BRu)4,mp-1200756,0.0,6.99614549,0.0,icsd-615202,"{59: 1, 5: 4, 44: 4}","[5, 44, 59]",54444591,Pr1B4Ru4
Nd(BRu)4,mp-1198170,0.0,6.93836502,0.0,icsd-614967,"{60: 1, 5: 4, 44: 4}","[5, 44, 60]",54444601,Nd1B4Ru4
Sm(BRu)4,mp-1199012,0.0,6.84862974,0.0,icsd-421309,"{62: 1, 5: 4, 44: 4}","[5, 44, 62]",54444621,Sm1B4Ru4
Eu(BRu)4,mp-1199986,0.0,6.73122624,0.0,icsd-613870,"{63: 1, 5: 4, 44: 4}","[5, 44, 63]",54444631,Eu1B4Ru4
Tb(BRu)4,mp-1199943,0.0,7.00318067,0.0,icsd-615375,"{65: 1, 5: 4, 44: 4}","[5, 44, 65]",54444651,Tb1B4Ru4
Dy(BRu)4,mp-1202990,0.0,6.91933107,0.0,icsd-613688,"{66: 1, 5: 4, 44: 4}","[5, 44, 66]",54444661,Dy1B4Ru4
Ho(BRu)4,mp-1204787,0.0,6.91856826,0.0,icsd-614511,"{67: 1, 5: 4, 44: 4}","[5, 44, 67]",54444671,Ho1B4Ru4
Er(BRu)4,mp-1196250,0.0,6.95108072,0.0,icsd-613822,"{68: 1, 5: 4, 44: 4}","[5, 44, 68]",54444681,Er1B4Ru4
Tm(BRu)4,mp-1197448,0.0,6.87660248,0.0,icsd-615387,"{69: 1, 5: 4, 44: 4}","[5, 44, 69]",54444691,Tm1B4Ru4
Lu(BRu)4,mp-568184,0.0,6.9111807,0.0,icsd-44440,"{71: 1, 5: 4, 44: 4}","[5, 44, 71]",54444711,Lu1B4Ru4
Th(BRu)4,mp-1203781,0.0,8.10391182,0.0,icsd-615378,"{90: 1, 5: 4, 44: 4}","[5, 44, 90]",54444901,Th1B4Ru4
U(BRu)4,mp-15355,0.0,9.45203017,0.0,icsd-100718,"{92: 1, 5: 4, 44: 4}","[5, 44, 92]",54444921,U1B4Ru4
DyB4Rh,mp-1212866,0.0,6.82245889,0.0,pf-25256,"{66: 1, 5: 4, 45: 1}","[5, 45, 66]",54451661,Dy1B4Rh1
HoB4Rh,mp-1212116,0.0,6.77458803,0.0,pf-9362,"{67: 1, 5: 4, 45: 1}","[5, 45, 67]",54451671,Ho1B4Rh1
ErB4Rh,mp-13342,0.0,6.89298461,0.0,icsd-603852,"{68: 1, 5: 4, 45: 1}","[5, 45, 68]",54451681,Er1B4Rh1
TmB4Rh,mp-13343,0.0,6.88721225,0.0,icsd-419360,"{69: 1, 5: 4, 45: 1}","[5, 45, 69]",54451691,Tm1B4Rh1
LuB4Rh,mp-1210888,0.0,6.85786726,0.0,pf-9432,"{71: 1, 5: 4, 45: 1}","[5, 45, 71]",54451711,Lu1B4Rh1
Sm(BRh)4,mp-978569,0.0,6.66108027,0.0,icsd-601577,"{62: 1, 5: 4, 45: 4}","[5, 45, 62]",54454621,Sm1B4Rh4
B4Rh5,mp-567926,0.0,6.66563718,0.0,icsd-86395,"{5: 4, 45: 5}","[5, 45]",54455,B4Rh5
La2B4Rh5,mp-14696,0.0,8.25429542,0.0,icsd-68539,"{57: 2, 5: 4, 45: 5}","[5, 45, 57]",54455572,La2B4Rh5
Eu2B4Rh5,mp-570529,0.0,5.73694285,0.0,icsd-68540,"{63: 2, 5: 4, 45: 5}","[5, 45, 63]",54455632,Eu2B4Rh5
LaB4,mp-7283,0.0,8.38943966,0.0,icsd-2360,"{57: 1, 5: 4}","[5, 57]",54571,La1B4
La(BOs)4,mp-1188221,0.0,8.11030039,0.0,icsd-614634,"{57: 1, 5: 4, 76: 4}","[5, 57, 76]",54571764,La1B4Os4
La(BIr)4,mp-9596,0.0,8.85527256,0.0,icsd-100717,"{57: 1, 5: 4, 77: 4}","[5, 57, 77]",54571774,La1B4Ir4
CeB4,mp-1974,0.0,8.43771437,0.0,icsd-612705,"{58: 1, 5: 4}","[5, 58]",54581,Ce1B4
CeReB4,mp-22361,0.0,8.70351381,0.0,icsd-81494,"{58: 1, 75: 1, 5: 4}","[5, 58, 75]",54581751,Ce1Re1B4
Ce(BOs)4,mp-1188930,0.22689999999999966,8.07229822,0.0,icsd-612815,"{58: 1, 5: 4, 76: 4}","[5, 58, 76]",54581764,Ce1B4Os4
Ce(BIr)4,mp-1190481,0.0,8.57203814,0.0,icsd-612787,"{58: 1, 5: 4, 77: 4}","[5, 58, 77]",54581774,Ce1B4Ir4
PrB4,mp-12569,0.0,5.84089168,0.0,icsd-108073,"{59: 1, 5: 4}","[5, 59]",54591,Pr1B4
Pr(BOs)4,mp-1188588,0.0,6.87743882,0.0,icsd-615119,"{59: 1, 5: 4, 76: 4}","[5, 59, 76]",54591764,Pr1B4Os4
Pr(BIr)4,mp-1189206,0.0,7.71126448,0.0,icsd-614553,"{59: 1, 5: 4, 77: 4}","[5, 59, 77]",54591774,Pr1B4Ir4
NdB4,mp-1632,0.0,5.79430285,0.0,icsd-93225,"{60: 1, 5: 4}","[5, 60]",54601,Nd1B4
Nd(BOs)4,mp-15323,0.0,6.82934698,0.0,icsd-614951,"{60: 1, 5: 4, 76: 4}","[5, 60, 76]",54601764,Nd1B4Os4
Nd(BIr)4,mp-9584,0.0,7.61344691,0.0,icsd-100351,"{60: 1, 5: 4, 77: 4}","[5, 60, 77]",54601774,Nd1B4Ir4
Tb2B4C,mp-1025379,0.0,5.15406189,0.0,pf-37153,"{65: 2, 5: 4, 6: 1}","[5, 6, 65]",5461652,Tb2B4C1
Dy2B4C,mp-568541,0.0,5.12844442,0.0,icsd-418403,"{66: 2, 5: 4, 6: 1}","[5, 6, 66]",5461662,Dy2B4C1
Ho2B4C,mp-1025183,0.0,5.06999436,0.0,pf-5722,"{67: 2, 5: 4, 6: 1}","[5, 6, 67]",5461672,Ho2B4C1
Er2B4C,mp-1025246,0.0,5.11131782,0.0,pf-16176,"{68: 2, 5: 4, 6: 1}","[5, 6, 68]",5461682,Er2B4C1
SmB4,mp-8546,0.0,5.63312143,0.0,icsd-615455,"{62: 1, 5: 4}","[5, 62]",54621,Sm1B4
SmReB4,mp-1208888,0.0,6.86125553,0.0,pf-22775,"{62: 1, 75: 1, 5: 4}","[5, 62, 75]",54621751,Sm1Re1B4
Sm(BOs)4,mp-1189226,0.0,6.75659356,0.0,icsd-615127,"{62: 1, 5: 4, 76: 4}","[5, 62, 76]",54621764,Sm1B4Os4
Sm(BIr)4,mp-1188143,0.0,7.62407912,0.0,icsd-614562,"{62: 1, 5: 4, 77: 4}","[5, 62, 77]",54621774,Sm1B4Ir4
Eu(BOs)4,mp-1189309,0.0,6.53776269,0.0,icsd-613858,"{63: 1, 5: 4, 76: 4}","[5, 63, 76]",54631764,Eu1B4Os4
Eu(BIr)4,mp-20578,0.0,7.2684892,0.0,icsd-44239,"{63: 1, 5: 4, 77: 4}","[5, 63, 77]",54631774,Eu1B4Ir4
GdB4,mp-1105563,0.0,5.70322629,0.0,icsd-614324,"{64: 1, 5: 4}","[5, 64]",54641,Gd1B4
GdReB4,mp-1191130,0.0,6.80994988,0.0,icsd-614368,"{64: 1, 75: 1, 5: 4}","[5, 64, 75]",54641751,Gd1Re1B4
GdB4Os,mp-1191685,0.0,7.03466814,0.0,icsd-614361,"{64: 1, 5: 4, 76: 1}","[5, 64, 76]",54641761,Gd1B4Os1
Gd(BIr)4,mp-1106191,0.0,7.54021382,0.0,icsd-614338,"{64: 1, 5: 4, 77: 4}","[5, 64, 77]",54641774,Gd1B4Ir4
Nb7(BC)4,mp-29981,0.0,7.18205293,0.0,icsd-411624,"{41: 7, 5: 4, 6: 4}","[5, 6, 41]",5464417,Nb7B4C4
TbB4,mp-568225,0.0,5.92258972,0.0,icsd-615540,"{65: 1, 5: 4}","[5, 65]",54651,Tb1B4
TbB4W,mp-1191902,0.5609000000000002,6.28606857,0.0,icsd-615552,"{65: 1, 5: 4, 74: 1}","[5, 65, 74]",54651741,Tb1B4W1
TbReB4,mp-1192121,0.0,7.01522449,0.0,icsd-615250,"{65: 1, 75: 1, 5: 4}","[5, 65, 75]",54651751,Tb1Re1B4
TbB4Os,mp-1192125,0.0,7.22330202,0.0,icsd-615129,"{65: 1, 5: 4, 76: 1}","[5, 65, 76]",54651761,Tb1B4Os1
Tb(BIr)4,mp-978921,0.0,7.65367882,0.0,icsd-614568,"{65: 1, 5: 4, 77: 4}","[5, 65, 77]",54651774,Tb1B4Ir4
DyB4,mp-2719,0.0,5.90631589,0.0,icsd-613594,"{66: 1, 5: 4}","[5, 66]",54661,Dy1B4
DyB4W,mp-1192160,0.5661000000000005,6.27687614,0.0,icsd-613694,"{66: 1, 5: 4, 74: 1}","[5, 66, 74]",54661741,Dy1B4W1
DyReB4,mp-1190368,0.0,7.01085164,0.0,icsd-196338,"{66: 1, 75: 1, 5: 4}","[5, 66, 75]",54661751,Dy1Re1B4
DyB4Os,mp-1192250,0.0,7.22103093,0.0,icsd-613664,"{66: 1, 5: 4, 76: 1}","[5, 66, 76]",54661761,Dy1B4Os1
HoB4,mp-569281,0.0,5.8557998,0.0,icsd-182659,"{67: 1, 5: 4}","[5, 67]",54671,Ho1B4
HoB4W,mp-976384,0.2705000000000002,6.53438946,0.0,icsd-614514,"{67: 1, 5: 4, 74: 1}","[5, 67, 74]",54671741,Ho1B4W1
HoReB4,mp-975064,0.0,6.97178529,0.0,icsd-614493,"{67: 1, 75: 1, 5: 4}","[5, 67, 75]",54671751,Ho1Re1B4
HoB4Os,mp-1190601,0.0,7.18249368,0.0,icsd-614487,"{67: 1, 5: 4, 76: 1}","[5, 67, 76]",54671761,Ho1B4Os1
ErB4,mp-2847,0.0,5.88881192,0.0,icsd-68305,"{68: 1, 5: 4}","[5, 68]",54681,Er1B4
ErB4W,mp-1192093,0.5911,6.25470356,0.0,icsd-613826,"{68: 1, 5: 4, 74: 1}","[5, 68, 74]",54681741,Er1B4W1
ErB4Os,mp-1191929,0.0,7.21310137,0.0,icsd-613787,"{68: 1, 5: 4, 76: 1}","[5, 68, 76]",54681761,Er1B4Os1
Er(BIr)4,mp-1189046,0.0,8.28938245,0.0,icsd-659488,"{68: 1, 5: 4, 77: 4}","[5, 68, 77]",54681774,Er1B4Ir4
Y16B4C8I19,mp-579614,0.2362000000000002,3.12318291,0.0,icsd-408701,"{39: 16, 5: 4, 6: 8, 53: 19}","[5, 6, 39, 53]",546839165319,Y16B4C8I19
TmB4,mp-568143,0.0,5.86685332,0.0,icsd-615613,"{69: 1, 5: 4}","[5, 69]",54691,Tm1B4
TmB4Os,mp-982777,0.0,7.20090927,0.0,icsd-615134,"{69: 1, 5: 4, 76: 1}","[5, 69, 76]",54691761,Tm1B4Os1
Tm(BIr)4,mp-1178924,0.0,8.31604676,0.0,icsd-614572,"{69: 1, 5: 4, 77: 4}","[5, 69, 77]",54691774,Tm1B4Ir4
LuB4,mp-571495,0.0,5.86642379,0.0,icsd-614674,"{71: 1, 5: 4}","[5, 71]",54711,Lu1B4
LuB4Os,mp-973529,0.0,7.21169195,0.0,icsd-614693,"{71: 1, 5: 4, 76: 1}","[5, 71, 76]",54711761,Lu1B4Os1
HfB4Ir3,mp-13861,0.0,9.0003017,0.0,icsd-614432,"{72: 1, 5: 4, 77: 3}","[5, 72, 77]",54721773,Hf1B4Ir3
Ta3B4,mp-10142,0.0,8.29819989,0.0,icsd-602946,"{73: 3, 5: 4}","[5, 73]",54733,Ta3B4
ThB4W,mp-1102822,0.0,8.39848503,0.0,icsd-615588,"{90: 1, 5: 4, 74: 1}","[5, 74, 90]",54741901,Th1B4W1
UB4W,mp-1103255,0.0,9.9199993,0.0,icsd-615650,"{92: 1, 5: 4, 74: 1}","[5, 74, 92]",54741921,U1B4W1
PuB4W,mp-1191218,0.0,9.85134644,0.0,icsd-615235,"{94: 1, 5: 4, 74: 1}","[5, 74, 94]",54741941,Pu1B4W1
ThReB4,mp-1101769,0.0,8.44890117,0.0,icsd-615254,"{90: 1, 75: 1, 5: 4}","[5, 75, 90]",54751901,Th1Re1B4
UReB4,mp-1102585,0.0,10.28868724,0.0,icsd-615262,"{92: 1, 75: 1, 5: 4}","[5, 75, 92]",54751921,U1Re1B4
PuReB4,mp-1192270,0.0,10.03410759,0.0,icsd-615226,"{94: 1, 75: 1, 5: 4}","[5, 75, 94]",54751941,Pu1Re1B4
UB4Os,mp-1095488,0.0,10.69388758,0.0,icsd-615139,"{92: 1, 5: 4, 76: 1}","[5, 76, 92]",54761921,U1B4Os1