formula,material_id,band_gap,efermi,energy_above_hull,database_IDs,comp_atoms,sorted_keys_comp_atoms,comp_number,new_formula
Ba3Y2(B2O5)3,mp-1019527,4.525,0.70258014,0.0,icsd-261704,"{56: 3, 39: 2, 5: 6, 8: 15}","[5, 8, 39, 56]",56815392563,Ba3Y2B6O15
Ba3Ge2(B3O8)2,mp-1194165,4.1759,1.87465826,0.0,icsd-261403,"{56: 3, 32: 2, 5: 6, 8: 16}","[5, 8, 32, 56]",56816322563,Ba3Ge2B6O16
Rb4Ge3B6O17,mp-1020896,4.401199999999999,0.2551054,0.0,icsd-261334,"{37: 4, 32: 3, 5: 6, 8: 17}","[5, 8, 32, 37]",56817323374,Rb4Ge3B6O17
Sr6YSc(BO3)6,mp-18043,4.4887,1.52336152,0.0,icsd-67648,"{38: 6, 39: 1, 21: 1, 5: 6, 8: 18}","[5, 8, 21, 38, 39]",56818211386391,Sr6Y1Sc1B6O18
Ca10Ge16(B2O17)3,mp-1019569,2.7264,1.96985695,0.0,icsd-261970,"{20: 10, 32: 16, 5: 6, 8: 51}","[5, 8, 20, 32]",5685120103216,Ca10Ge16B6O51
ThB6,mp-1756,0.0,8.56450316,0.0,icsd-615576,"{90: 1, 5: 6}","[5, 90]",56901,Th1B6
Pr8(BCl)7,mp-568295,0.0,4.96746268,0.0,icsd-410728,"{59: 8, 5: 7, 17: 7}","[5, 17, 59]",57177598,Pr8B7Cl7
Ho3CrB7,mp-31046,0.0,5.2693142,0.0,icsd-56994,"{67: 3, 24: 1, 5: 7}","[5, 24, 67]",57241673,Ho3Cr1B7
Er3CrB7,mp-14503,0.0,5.32699014,0.0,icsd-62630,"{68: 3, 24: 1, 5: 7}","[5, 24, 68]",57241683,Er3Cr1B7
Y3MnB7,mp-1192224,0.0,5.45708076,0.0,icsd-614789,"{39: 3, 25: 1, 5: 7}","[5, 25, 39]",57251393,Y3Mn1B7
Tb3MnB7,mp-1190660,0.0,5.35026613,0.0,icsd-614777,"{65: 3, 25: 1, 5: 7}","[5, 25, 65]",57251653,Tb3Mn1B7
Dy3MnB7,mp-14356,0.0,5.33416461,0.0,icsd-39509,"{66: 3, 25: 1, 5: 7}","[5, 25, 66]",57251663,Dy3Mn1B7
Ho3MnB7,mp-1191455,0.0,5.28427873,0.0,icsd-614474,"{67: 3, 25: 1, 5: 7}","[5, 25, 67]",57251673,Ho3Mn1B7
Er3MnB7,mp-1191003,0.0,5.26696287,0.0,icsd-613774,"{68: 3, 25: 1, 5: 7}","[5, 25, 68]",57251683,Er3Mn1B7
Y3FeB7,mp-14542,0.0,5.68293011,0.0,icsd-614288,"{39: 3, 26: 1, 5: 7}","[5, 26, 39]",57261393,Y3Fe1B7
Tb3FeB7,mp-972235,0.0,5.55836053,0.0,icsd-614215,"{65: 3, 26: 1, 5: 7}","[5, 26, 65]",57261653,Tb3Fe1B7
Dy3FeB7,mp-1192098,0.0,5.5446743,0.0,icsd-613612,"{66: 3, 26: 1, 5: 7}","[5, 26, 66]",57261663,Dy3Fe1B7
Ho3FeB7,mp-1192262,0.0,5.53257626,0.0,icsd-613979,"{67: 3, 26: 1, 5: 7}","[5, 26, 67]",57261673,Ho3Fe1B7
Er3FeB7,mp-1190715,0.0,5.51983295,0.0,icsd-613731,"{68: 3, 26: 1, 5: 7}","[5, 26, 68]",57261683,Er3Fe1B7
Gd2(FeB)7,mp-680207,0.0,5.86938581,0.0,icsd-40910,"{64: 2, 26: 7, 5: 7}","[5, 26, 64]",57267642,Gd2Fe7B7
Nb3Co4B7,mp-4212,0.0,7.10167693,0.0,icsd-62282,"{41: 3, 27: 4, 5: 7}","[5, 27, 41]",57274413,Nb3Co4B7
YB7Mo3,mp-504874,0.0,8.32015848,0.0,icsd-39873,"{39: 1, 5: 7, 42: 3}","[5, 39, 42]",57391423,Y1B7Mo3
Y3B7W,mp-14373,0.0,5.7239621,0.0,icsd-39663,"{39: 3, 5: 7, 74: 1}","[5, 39, 74]",57393741,Y3B7W1
Y3ReB7,mp-7625,0.0,5.63158325,0.0,icsd-615283,"{39: 3, 75: 1, 5: 7}","[5, 39, 75]",57393751,Y3Re1B7
Tb3B7Mo,mp-1208474,0.0,5.65317936,0.0,pf-25793,"{65: 3, 5: 7, 42: 1}","[5, 42, 65]",57421653,Tb3B7Mo1
Dy3B7Mo,mp-1213062,0.0,5.68897117,0.0,pf-36277,"{66: 3, 5: 7, 42: 1}","[5, 42, 66]",57421663,Dy3B7Mo1
DyB7Mo3,mp-1212893,0.0,8.3034585,0.0,pf-374,"{66: 1, 5: 7, 42: 3}","[5, 42, 66]",57423661,Dy1B7Mo3
HoB7Mo3,mp-504877,0.0,8.24176384,0.0,icsd-39943,"{67: 1, 5: 7, 42: 3}","[5, 42, 67]",57423671,Ho1B7Mo3
ErB7Mo3,mp-1213140,0.0,8.28908171,0.0,pf-31813,"{68: 1, 5: 7, 42: 3}","[5, 42, 68]",57423681,Er1B7Mo3
TmB7Mo3,mp-1208003,0.0,8.23669444,0.0,pf-21347,"{69: 1, 5: 7, 42: 3}","[5, 42, 69]",57423691,Tm1B7Mo3
La2Re3B7,mp-27894,0.0,8.22829955,0.0,icsd-614639,"{57: 2, 75: 3, 5: 7}","[5, 57, 75]",57572753,La2Re3B7
Y21B7(C7I9)2,mp-680189,0.0,4.01259445,0.0,icsd-408862,"{39: 21, 5: 7, 6: 14, 53: 18}","[5, 6, 39, 53]",5761439215318,Y21B7C14I18
Gd3B7W,mp-1190670,0.0,5.45168203,0.0,icsd-656433,"{64: 3, 5: 7, 74: 1}","[5, 64, 74]",57643741,Gd3B7W1
Tb3B7W,mp-1191743,0.0,5.60445507,0.0,icsd-656434,"{65: 3, 5: 7, 74: 1}","[5, 65, 74]",57653741,Tb3B7W1
Tb3ReB7,mp-972380,0.0,5.56999659,0.0,icsd-615249,"{65: 3, 75: 1, 5: 7}","[5, 65, 75]",57653751,Tb3Re1B7
Dy3B7W,mp-1191614,0.0,5.57393917,0.0,icsd-656435,"{66: 3, 5: 7, 74: 1}","[5, 66, 74]",57663741,Dy3B7W1
Dy3ReB7,mp-1190970,0.0,5.53912967,0.0,icsd-613670,"{66: 3, 75: 1, 5: 7}","[5, 66, 75]",57663751,Dy3Re1B7
Ho3B7W,mp-1191254,0.0,5.52029882,0.0,icsd-656436,"{67: 3, 5: 7, 74: 1}","[5, 67, 74]",57673741,Ho3B7W1
Ho3ReB7,mp-973395,0.0,5.49166414,0.0,icsd-614492,"{67: 3, 75: 1, 5: 7}","[5, 67, 75]",57673751,Ho3Re1B7
Er3B7W,mp-1191731,0.0,5.55753192,0.0,icsd-656437,"{68: 3, 5: 7, 74: 1}","[5, 68, 74]",57683741,Er3B7W1
Er3ReB7,mp-1191966,0.0,5.51375317,0.0,icsd-613796,"{68: 3, 75: 1, 5: 7}","[5, 68, 75]",57683751,Er3Re1B7
Tm3B7W,mp-1191016,0.0,5.53537921,0.0,icsd-656438,"{69: 3, 5: 7, 74: 1}","[5, 69, 74]",57693741,Tm3B7W1
Tm3ReB7,mp-865404,0.0,5.47849142,0.0,icsd-615256,"{69: 3, 75: 1, 5: 7}","[5, 69, 75]",57693751,Tm3Re1B7
Na3B7O12,mp-31073,4.9219,0.47113017,0.0,icsd-99049,"{11: 3, 5: 7, 8: 12}","[5, 8, 11]",57812113,Na3B7O12
SrAgB7O12,mp-554259,3.0005999999999995,1.77791326,0.0,icsd-406544,"{38: 1, 47: 1, 5: 7, 8: 12}","[5, 8, 38, 47]",57812381471,Sr1Ag1B7O12
Cr3B7ClO13,mp-559511,2.7626000000000004,3.84983466,0.0,icsd-74038,"{24: 3, 5: 7, 17: 1, 8: 13}","[5, 8, 17, 24]",57813171243,Cr3B7Cl1O13
Mn3B7ClO13,mp-556656,4.2082999999999995,2.69053821,0.0,icsd-402906,"{25: 3, 5: 7, 17: 1, 8: 13}","[5, 8, 17, 25]",57813171253,Mn3B7Cl1O13
Fe3B7ClO13,mp-556300,2.8149000000000006,3.55823985,0.0,icsd-60504,"{26: 3, 5: 7, 17: 1, 8: 13}","[5, 8, 17, 26]",57813171263,Fe3B7Cl1O13
Cr3B7BrO13,mp-23581,2.4249,4.12942541,0.0,icsd-66352,"{24: 3, 5: 7, 35: 1, 8: 13}","[5, 8, 24, 35]",57813243351,Cr3B7Br1O13
Cr3B7IO13,mp-558442,1.7271999999999998,4.99436916,0.0,icsd-62178,"{24: 3, 5: 7, 53: 1, 8: 13}","[5, 8, 24, 53]",57813243531,Cr3B7I1O13
Mn3B7BrO13,mp-560911,4.1137,2.77957769,0.0,icsd-402907,"{25: 3, 5: 7, 35: 1, 8: 13}","[5, 8, 25, 35]",57813253351,Mn3B7Br1O13
Mn3B7IO13,mp-23566,3.8123,3.23770873,0.0,icsd-84319,"{25: 3, 5: 7, 53: 1, 8: 13}","[5, 8, 25, 53]",57813253531,Mn3B7I1O13
Fe3B7IO13,mp-1194881,3.0026,2.77106425,0.0,icsd-5421,"{26: 3, 5: 7, 53: 1, 8: 13}","[5, 8, 26, 53]",57813263531,Fe3B7I1O13
Cr3B7O13F,mp-1213769,3.1891000000000003,2.98524537,0.0,pf-24581,"{24: 3, 5: 7, 8: 13, 9: 1}","[5, 8, 9, 24]",5781391243,Cr3B7O13F1
Ti9Mn2(B4Ru9)2,mp-1197511,0.0,7.56727181,0.0,icsd-421247,"{22: 9, 25: 2, 5: 8, 44: 18}","[5, 22, 25, 44]",582292524418,Ti9Mn2B8Ru18
Zn10Ge(B4Rh9)2,mp-1207543,0.0,5.89189116,0.0,pf-29432,"{30: 10, 32: 1, 5: 8, 45: 18}","[5, 30, 32, 45]",5830103214518,Zn10Ge1B8Rh18
Zn11(B4Rh9)2,mp-1207530,0.0,5.65654813,0.0,pf-37861,"{30: 11, 5: 8, 45: 18}","[5, 30, 45]",5830114518,Zn11B8Rh18
Sr2B8Ru7,mp-649084,0.0,6.29287364,0.0,icsd-33848,"{38: 2, 5: 8, 44: 7}","[5, 38, 44]",58382447,Sr2B8Ru7
Nb7(B4Ru3)2,mp-1191941,0.0,7.44997882,0.0,icsd-263041,"{41: 7, 5: 8, 44: 6}","[5, 41, 44]",58417446,Nb7B8Ru6
Ta7(B4Ru3)2,mp-1191981,0.0,8.01285971,0.0,icsd-263042,"{73: 7, 5: 8, 44: 6}","[5, 44, 73]",58446737,Ta7B8Ru6
Ce15B8N25,mp-28370,0.0,8.36038587,0.0,icsd-62123,"{58: 15, 5: 8, 7: 25}","[5, 7, 58]",587255815,Ce15B8N25
Na2B8O13,mp-542300,5.4478,-0.14020065,0.0,icsd-95868,"{11: 2, 5: 8, 8: 13}","[5, 8, 11]",58813112,Na2B8O13
SrB8O13,mp-684018,5.5745000000000005,5.87730536,0.0,icsd-173580,"{38: 1, 5: 8, 8: 13}","[5, 8, 38]",58813381,Sr1B8O13
Ag2B8O13,mp-554873,3.2651,0.52025417,0.0,icsd-18134,"{47: 2, 5: 8, 8: 13}","[5, 8, 47]",58813472,Ag2B8O13
BaB8O13,mp-27794,5.5451,0.11387725,0.0,icsd-26203,"{56: 1, 5: 8, 8: 13}","[5, 8, 56]",58813561,Ba1B8O13
Ba4NaGa2B8(ClO6)3,mp-1195176,4.4547,1.05801913,0.0,icsd-291588,"{56: 4, 11: 1, 31: 2, 5: 8, 17: 3, 8: 18}","[5, 8, 11, 17, 31, 56]",58818111173312564,Ba4Na1Ga2B8Cl3O18
Ba4NaGa2B8(BrO6)3,mp-1195423,3.4734,1.7601824,0.0,icsd-291589,"{56: 4, 11: 1, 31: 2, 5: 8, 35: 3, 8: 18}","[5, 8, 11, 31, 35, 56]",58818111312353564,Ba4Na1Ga2B8Br3O18
Na3La9B8O27,mp-6760,4.0102,4.46191785,0.0,icsd-155541,"{11: 3, 57: 9, 5: 8, 8: 27}","[5, 8, 11, 57]",58827113579,Na3La9B8O27
Na3Nd9B8O27,mp-1210255,3.9569,2.26225438,0.0,pf-5106,"{11: 3, 60: 9, 5: 8, 8: 27}","[5, 8, 11, 60]",58827113609,Na3Nd9B8O27
NaB9Se8,mp-640950,1.9422000000000001,1.2482763,0.0,icsd-414456,"{11: 1, 5: 9, 34: 8}","[5, 11, 34]",59111348,Na1B9Se8
Na4(BSe)9,mp-31229,2.2101,1.14063569,0.0,icsd-414010,"{11: 4, 5: 9, 34: 9}","[5, 11, 34]",59114349,Na4B9Se9
Rb4(BS)9,mp-31060,3.1228000000000002,0.89747148,0.0,icsd-98521,"{37: 4, 5: 9, 16: 9}","[5, 16, 37]",59169374,Rb4B9S9
Cs4(BS)9,mp-1200467,3.2401,0.84745455,0.0,icsd-98522,"{55: 4, 5: 9, 16: 9}","[5, 16, 55]",59169554,Cs4B9S9
K4(BSe)9,mp-680747,2.1626,0.69278239,0.0,icsd-413039,"{19: 4, 5: 9, 34: 9}","[5, 19, 34]",59194349,K4B9Se9
Rb2Hg(BSe)9,mp-541819,1.8296999999999999,0.64787354,0.0,icsd-410758,"{37: 2, 80: 1, 5: 9, 34: 9}","[5, 34, 37, 80]",59349372801,Rb2Hg1B9Se9
Rb4(BSe)9,mp-541818,2.1943,0.84687376,0.0,icsd-410757,"{37: 4, 5: 9, 34: 9}","[5, 34, 37]",59349374,Rb4B9Se9
Cs2Hg(BSe)9,mp-1202194,1.8712,2.61715112,0.0,icsd-410759,"{55: 2, 80: 1, 5: 9, 34: 9}","[5, 34, 55, 80]",59349552801,Cs2Hg1B9Se9
Cs4(BSe)9,mp-1198415,2.5433,0.72886693,0.0,icsd-406703,"{55: 4, 5: 9, 34: 9}","[5, 34, 55]",59349554,Cs4B9Se9
K2Na(B3O5)3,mp-558293,5.062,-0.28556623,0.0,icsd-417854,"{19: 2, 11: 1, 5: 9, 8: 15}","[5, 8, 11, 19]",59815111192,K2Na1B9O15
BaNa(B3O5)3,mp-17864,5.5009999999999994,-0.57260115,0.0,icsd-93014,"{56: 1, 11: 1, 5: 9, 8: 15}","[5, 8, 11, 56]",59815111561,Ba1Na1B9O15
Ba3Tb(BO2)9,mp-1214548,5.1617999999999995,5.5947389,0.0,pf-26735,"{56: 3, 65: 1, 5: 9, 8: 18}","[5, 8, 56, 65]",59818563651,Ba3Tb1B9O18
Ba3Tm(BO2)9,mp-1214609,5.2609,5.73228974,0.0,pf-26791,"{56: 3, 69: 1, 5: 9, 8: 18}","[5, 8, 56, 69]",59818563691,Ba3Tm1B9O18