formula,material_id,band_gap,efermi,energy_above_hull,database_IDs,comp_atoms,sorted_keys_comp_atoms,comp_number,new_formula
TlBS2,mp-8946,1.7590000000000003,3.36859046,0.0,icsd-71593,"{81: 1, 5: 1, 16: 2}","[5, 16, 81]",51162811,Tl1B1S2
K3BS3,mp-29975,2.5044000000000004,0.90023122,0.0,icsd-411607,"{19: 3, 5: 1, 16: 3}","[5, 16, 19]",51163193,K3B1S3
RbBS3,mp-9047,2.2016,1.97756267,0.0,icsd-73084,"{37: 1, 5: 1, 16: 3}","[5, 16, 37]",51163371,Rb1B1S3
Rb3BS3,mp-29977,2.5462000000000002,0.78551673,0.0,icsd-411609,"{37: 3, 5: 1, 16: 3}","[5, 16, 37]",51163373,Rb3B1S3
Cs3BS3,mp-30222,2.5095,1.42153011,0.0,icsd-391170,"{55: 3, 5: 1, 16: 3}","[5, 16, 55]",51163553,Cs3B1S3
PrBS3,mp-862754,2.4441,3.39306814,0.0,icsd-421072,"{59: 1, 5: 1, 16: 3}","[5, 16, 59]",51163591,Pr1B1S3
Tl3BS3,mp-29337,1.4222000000000001,3.07582058,0.0,icsd-202528,"{81: 3, 5: 1, 16: 3}","[5, 16, 81]",51163813,Tl3B1S3
BaBSbS4,mp-866301,2.3423000000000003,2.42408514,0.0,icsd-248221,"{56: 1, 5: 1, 51: 1, 16: 4}","[5, 16, 51, 56]",51164511561,Ba1B1Sb1S4
Sc7BCl12,mp-505489,0.0,4.41526407,0.0,icsd-201975,"{21: 7, 5: 1, 17: 12}","[5, 17, 21]",511712217,Sc7B1Cl12
Zr6BCl14,mp-29358,0.0,1.96107048,0.0,icsd-202916,"{40: 6, 5: 1, 17: 14}","[5, 17, 40]",511714406,Zr6B1Cl14
Hf6BCl14,mp-1212496,0.01609999999999978,2.53393458,0.0,pf-37832,"{72: 6, 5: 1, 17: 14}","[5, 17, 72]",511714726,Hf6B1Cl14
CsKZr6BCl15,mp-1213422,1.0097999999999998,2.27083715,0.0,pf-26829,"{55: 1, 19: 1, 40: 6, 5: 1, 17: 15}","[5, 17, 19, 40, 55]",511715191406551,Cs1K1Zr6B1Cl15
RbZr6BCl15,mp-1209995,0.0026000000000001577,1.35605119,0.0,pf-26912,"{37: 1, 40: 6, 5: 1, 17: 15}","[5, 17, 37, 40]",511715371406,Rb1Zr6B1Cl15
CsRbZr6BCl15,mp-1213588,1.0453000000000001,2.07225951,0.0,pf-37428,"{55: 1, 37: 1, 40: 6, 5: 1, 17: 15}","[5, 17, 37, 40, 55]",511715371406551,Cs1Rb1Zr6B1Cl15
Ba2Zr6BCl17,mp-568105,0.8424999999999998,2.58133175,0.0,icsd-203141,"{56: 2, 40: 6, 5: 1, 17: 17}","[5, 17, 40, 56]",511717406562,Ba2Zr6B1Cl17
Cs3Zr7BCl20,mp-567781,1.1953999999999998,2.26925211,0.0,icsd-391241,"{55: 3, 40: 7, 5: 1, 17: 20}","[5, 17, 40, 55]",511720407553,Cs3Zr7B1Cl20
BCl3,mp-23184,4.7135,-2.94441258,0.0,icsd-27869,"{5: 1, 17: 3}","[5, 17]",51173,B1Cl3
Y3BCl3,mp-1207798,0.0,4.43793026,0.0,pf-35817,"{39: 3, 5: 1, 17: 3}","[5, 17, 39]",51173393,Y3B1Cl3
Tb3BCl3,mp-1208487,0.0,4.32352024,0.0,pf-4355,"{65: 3, 5: 1, 17: 3}","[5, 17, 65]",51173653,Tb3B1Cl3
Sc4BCl6,mp-29452,0.0,3.16149991,0.0,icsd-201977,"{21: 4, 5: 1, 17: 6}","[5, 17, 21]",51176214,Sc4B1Cl6
KZr6BI14,mp-1211525,0.7154000000000003,3.61231651,0.0,pf-30102,"{19: 1, 40: 6, 5: 1, 53: 14}","[5, 19, 40, 53]",511914065314,K1Zr6B1I14
K8Zr6BBr20,mp-866664,0.055299999999999905,2.21089157,0.0,icsd-165310,"{19: 8, 40: 6, 5: 1, 35: 20}","[5, 19, 35, 40]",511983520406,K8Zr6B1Br20
CaBPd3,mp-1206909,0.0,4.65691955,0.0,pf-28866,"{20: 1, 5: 1, 46: 3}","[5, 20, 46]",51201463,Ca1B1Pd3
ScBRh3,mp-569875,0.0,6.13154555,0.0,icsd-44561,"{21: 1, 5: 1, 45: 3}","[5, 21, 45]",51211453,Sc1B1Rh3
ScBIr3,mp-10113,0.0,8.16870511,0.0,icsd-44423,"{21: 1, 5: 1, 77: 3}","[5, 21, 77]",51211773,Sc1B1Ir3
Sc3SnB,mp-10139,0.0,5.16917489,0.0,icsd-167914,"{21: 3, 50: 1, 5: 1}","[5, 21, 50]",51213501,Sc3Sn1B1
Sc3BPb,mp-10133,0.0,5.18934514,0.0,icsd-167916,"{21: 3, 5: 1, 82: 1}","[5, 21, 82]",51213821,Sc3B1Pb1
K3SmGa3B12S12I,mp-1197963,2.4325,1.61680553,0.0,icsd-420294,"{19: 3, 62: 1, 31: 3, 5: 12, 16: 12, 53: 1}","[5, 16, 19, 31, 53, 62]",5121612193313531621,K3Sm1Ga3B12S12I1
TiB,mp-7857,0.0,6.79493263,0.0,icsd-189386,"{22: 1, 5: 1}","[5, 22]",51221,Ti1B1
ScB12,mp-8772,0.0,5.92705682,0.0,icsd-68028,"{21: 1, 5: 12}","[5, 21]",512211,Sc1B12
Sc4B12Rh17,mp-1200575,0.0,6.82451885,0.0,icsd-421415,"{21: 4, 5: 12, 45: 17}","[5, 21, 45]",5122144517,Sc4B12Rh17
Ti2BRh6,mp-571126,0.0,7.02599705,0.0,icsd-415337,"{22: 2, 5: 1, 45: 6}","[5, 22, 45]",51222456,Ti2B1Rh6
Ti6Ge2B,mp-1080829,0.0,6.51183631,0.0,icsd-181165,"{22: 6, 32: 2, 5: 1}","[5, 22, 32]",51226322,Ti6Ge2B1
VB,mp-9973,0.0,7.54884625,0.0,icsd-42952,"{23: 1, 5: 1}","[5, 23]",51231,V1B1
V5Ge3B,mp-1106398,0.0,7.82953522,0.0,icsd-614407,"{23: 5, 32: 3, 5: 1}","[5, 23, 32]",51235323,V5Ge3B1
YB12,mp-7817,0.0,5.73668124,0.0,icsd-23860,"{39: 1, 5: 12}","[5, 39]",512391,Y1B12
CrB,mp-1080664,0.0,8.55124396,0.0,icsd-613476,"{24: 1, 5: 1}","[5, 24]",51241,Cr1B1
MnB,mp-8365,0.0,7.6099241,0.0,icsd-614725,"{25: 1, 5: 1}","[5, 25]",51251,Mn1B1
Ba7(BIr)12,mp-27261,0.0,5.07296469,0.0,icsd-8156,"{56: 7, 5: 12, 77: 12}","[5, 56, 77]",5125677712,Ba7B12Ir12
Ce8Re13B12,mp-1202101,0.0,8.34712151,0.0,icsd-656386,"{58: 8, 75: 13, 5: 12}","[5, 58, 75]",5125887513,Ce8Re13B12
FeB,mp-1007881,0.0,7.81118761,0.0,icsd-613898,"{26: 1, 5: 1}","[5, 26]",51261,Fe1B1
YFeCo3B,mp-1101797,0.0,5.12532471,0.0,icsd-613036,"{39: 1, 26: 1, 27: 3, 5: 1}","[5, 26, 27, 39]",51261273391,Y1Fe1Co3B1
NbFeB,mp-1080817,0.0,6.30622192,0.0,icsd-614046,"{41: 1, 26: 1, 5: 1}","[5, 26, 41]",51261411,Nb1Fe1B1
Y2Fe14B,mp-5434,0.0,4.57470698,0.0,icsd-614268,"{39: 2, 26: 14, 5: 1}","[5, 26, 39]",512614392,Y2Fe14B1
Sm2Fe14B,mp-1196306,0.0,4.69804216,0.0,icsd-603912,"{62: 2, 26: 14, 5: 1}","[5, 26, 62]",512614622,Sm2Fe14B1
Gd2Fe14B,mp-1198327,0.0,4.66390486,0.0,icsd-613925,"{64: 2, 26: 14, 5: 1}","[5, 26, 64]",512614642,Gd2Fe14B1
Tb2Fe14B,mp-5759,0.0,4.5684077,0.0,icsd-614223,"{65: 2, 26: 14, 5: 1}","[5, 26, 65]",512614652,Tb2Fe14B1
Dy2Fe14B,mp-4023,0.0,4.71827493,0.0,icsd-613620,"{66: 2, 26: 14, 5: 1}","[5, 26, 66]",512614662,Dy2Fe14B1
Ho2Fe14B,mp-14698,0.0,4.5258309,0.0,icsd-613985,"{67: 2, 26: 14, 5: 1}","[5, 26, 67]",512614672,Ho2Fe14B1
Er2Fe14B,mp-3680,0.0,4.53240458,0.0,icsd-613716,"{68: 2, 26: 14, 5: 1}","[5, 26, 68]",512614682,Er2Fe14B1
Tm2Fe14B,mp-5861,0.0,4.51577697,0.0,icsd-44301,"{69: 2, 26: 14, 5: 1}","[5, 26, 69]",512614692,Tm2Fe14B1
Lu2Fe14B,mp-4214,0.0,4.50975894,0.0,icsd-44246,"{71: 2, 26: 14, 5: 1}","[5, 26, 71]",512614712,Lu2Fe14B1
Th2Fe14B,mp-1198402,0.0,5.98999241,0.0,icsd-614228,"{90: 2, 26: 14, 5: 1}","[5, 26, 90]",512614902,Th2Fe14B1
TaFeB,mp-1080089,0.0,6.79310488,0.0,icsd-614205,"{73: 1, 26: 1, 5: 1}","[5, 26, 73]",51261731,Ta1Fe1B1
FeBW,mp-1103093,0.0,7.68349079,0.0,icsd-614256,"{26: 1, 5: 1, 74: 1}","[5, 26, 74]",51261741,Fe1B1W1
Fe2B,mp-1915,0.0,6.65516448,0.0,icsd-613907,"{26: 2, 5: 1}","[5, 26]",51262,Fe2B1
ErFe4B,mp-3045,0.0,4.96793269,0.0,icsd-601146,"{68: 1, 26: 4, 5: 1}","[5, 26, 68]",51264681,Er1Fe4B1
TmFe4B,mp-1102205,0.0,4.85595133,0.0,icsd-601121,"{69: 1, 26: 4, 5: 1}","[5, 26, 69]",51264691,Tm1Fe4B1
LuFe4B,mp-1101759,0.0,4.89328462,0.0,icsd-613996,"{71: 1, 26: 4, 5: 1}","[5, 26, 71]",51264711,Lu1Fe4B1
TbB12,mp-1104066,0.0,5.65854177,0.0,icsd-615534,"{65: 1, 5: 12}","[5, 65]",512651,Tb1B12
DyB12,mp-1103476,0.0,5.66366173,0.0,icsd-613592,"{66: 1, 5: 12}","[5, 66]",512661,Dy1B12
HoB12,mp-1104585,0.0,5.64952656,0.0,icsd-614457,"{67: 1, 5: 12}","[5, 67]",512671,Ho1B12
ErB12,mp-1104598,0.0,5.67024088,0.0,icsd-613695,"{68: 1, 5: 12}","[5, 68]",512681,Er1B12
TmB12,mp-1104905,0.0,5.66578808,0.0,icsd-615607,"{69: 1, 5: 12}","[5, 69]",512691,Tm1B12
CoB,mp-20857,0.0,7.45021879,0.0,icsd-612863,"{27: 1, 5: 1}","[5, 27]",51271,Co1B1
LuB12,mp-1104289,0.0,5.68758028,0.0,icsd-180141,"{71: 1, 5: 12}","[5, 71]",512711,Lu1B12
Y2Co14B,mp-1200125,0.0,4.96997016,0.0,icsd-613426,"{39: 2, 27: 14, 5: 1}","[5, 27, 39]",512714392,Y2Co14B1
Pr2Co14B,mp-1197003,0.0,5.09272201,0.0,icsd-602216,"{59: 2, 27: 14, 5: 1}","[5, 27, 59]",512714592,Pr2Co14B1
Sm2Co14B,mp-1195895,0.0,4.88886608,0.0,icsd-600359,"{62: 2, 27: 14, 5: 1}","[5, 27, 62]",512714622,Sm2Co14B1
Tb2Co14B,mp-1196092,0.0,4.97596234,0.0,icsd-600335,"{65: 2, 27: 14, 5: 1}","[5, 27, 65]",512714652,Tb2Co14B1
TaCoB,mp-1193187,0.0,6.78240169,0.0,icsd-613322,"{73: 1, 27: 1, 5: 1}","[5, 27, 73]",51271731,Ta1Co1B1
CoBW,mp-22759,0.0,7.59706448,0.0,icsd-613390,"{27: 1, 5: 1, 74: 1}","[5, 27, 74]",51271741,Co1B1W1
CuBSe2,mp-983565,1.487,4.97317333,0.0,icsd-613591,"{29: 1, 5: 1, 34: 2}","[5, 29, 34]",51291342,Cu1B1Se2
CuBIr,mp-28896,0.0,7.54958171,0.0,icsd-75029,"{29: 1, 5: 1, 77: 1}","[5, 29, 77]",51291771,Cu1B1Ir1
UB12,mp-22319,0.0,7.88469628,0.0,icsd-24705,"{92: 1, 5: 12}","[5, 92]",512921,U1B12
NpB12,mp-1103809,0.0,8.15932994,0.0,icsd-615105,"{93: 1, 5: 12}","[5, 93]",512931,Np1B12
PuB12,mp-1104892,0.0,7.82479716,0.0,icsd-615219,"{94: 1, 5: 12}","[5, 94]",512941,Pu1B12
Zn2BIr2,mp-28787,0.0,6.17836617,0.0,icsd-71643,"{30: 2, 5: 1, 77: 2}","[5, 30, 77]",51302772,Zn2B1Ir2
Ta5Ga3B,mp-1208348,0.0,5.65905405,0.0,pf-36074,"{73: 5, 31: 3, 5: 1}","[5, 31, 73]",51313735,Ta5Ga3B1
Ga8BIr4,mp-28924,0.0,5.67897991,0.0,icsd-79085,"{31: 8, 5: 1, 77: 4}","[5, 31, 77]",51318774,Ga8B1Ir4
Nb5Ge3B,mp-1105818,0.0,6.95828949,0.0,icsd-614400,"{41: 5, 32: 3, 5: 1}","[5, 32, 41]",51323415,Nb5Ge3B1
Rb3BAs2,mp-9718,1.2941000000000003,0.87985452,0.0,icsd-402082,"{37: 3, 5: 1, 33: 2}","[5, 33, 37]",51332373,Rb3B1As2
Cs3BAs2,mp-573658,1.4845,1.52110264,0.0,icsd-300122,"{55: 3, 5: 1, 33: 2}","[5, 33, 55]",51332553,Cs3B1As2
BSe2,mp-1214789,1.7712,0.31636213,0.0,pf-28848,"{5: 1, 34: 2}","[5, 34]",51342,B1Se2
CsBSe3,mp-573358,1.7167000000000001,1.73894469,0.0,icsd-411342,"{55: 1, 5: 1, 34: 3}","[5, 34, 55]",51343551,Cs1B1Se3
TlBSe3,mp-29959,0.9154,3.09927188,0.0,icsd-411344,"{81: 1, 5: 1, 34: 3}","[5, 34, 81]",51343811,Tl1B1Se3
Tl3BSe3,mp-28490,1.2251999999999996,2.78282022,0.0,icsd-40375,"{81: 3, 5: 1, 34: 3}","[5, 34, 81]",51343813,Tl3B1Se3
Cs4Zr6BBr17,mp-1203593,1.0312000000000001,1.5359984,0.0,icsd-165311,"{55: 4, 40: 6, 5: 1, 35: 17}","[5, 35, 40, 55]",513517406554,Cs4Zr6B1Br17
Rb8Zr6BBr20,mp-1209464,0.08999999999999986,2.02385383,0.0,pf-32288,"{37: 8, 40: 6, 5: 1, 35: 20}","[5, 35, 37, 40]",513520378406,Rb8Zr6B1Br20
BBr3,mp-23225,3.8273,-2.83168899,0.0,icsd-173374,"{5: 1, 35: 3}","[5, 35]",51353,B1Br3
Y3BBr3,mp-1207808,0.0,4.15448018,0.0,pf-14845,"{39: 3, 5: 1, 35: 3}","[5, 35, 39]",51353393,Y3B1Br3
Pr3BBr3,mp-1209395,0.0,3.5407051,0.0,pf-25399,"{59: 3, 5: 1, 35: 3}","[5, 35, 59]",51353593,Pr3B1Br3
Gd3BBr3,mp-1212672,0.0,3.83546635,0.0,pf-35891,"{64: 3, 5: 1, 35: 3}","[5, 35, 64]",51353643,Gd3B1Br3
Tb3BBr3,mp-1208486,0.0,4.00225331,0.0,pf-4419,"{65: 3, 5: 1, 35: 3}","[5, 35, 65]",51353653,Tb3B1Br3
Y4BBr6,mp-29485,0.0,3.02359902,0.0,icsd-402661,"{39: 4, 5: 1, 35: 6}","[5, 35, 39]",51356394,Y4B1Br6
Tb4BBr6,mp-29847,0.0,2.91532101,0.0,icsd-410997,"{65: 4, 5: 1, 35: 6}","[5, 35, 65]",51356654,Tb4B1Br6
B13C2,mp-576,0.0,4.74924726,0.0,icsd-446,"{5: 13, 6: 2}","[5, 6]",51362,B13C2
SrBPd4,mp-1191090,0.0,4.18146297,0.0,icsd-247263,"{38: 1, 5: 1, 46: 4}","[5, 38, 46]",51381464,Sr1B1Pd4
YBRh3,mp-29725,0.0,5.79303339,0.0,icsd-615341,"{39: 1, 5: 1, 45: 3}","[5, 39, 45]",51391453,Y1B1Rh3
YBPt2,mp-5971,0.0,5.97491908,0.0,icsd-156946,"{39: 1, 5: 1, 78: 2}","[5, 39, 78]",51391782,Y1B1Pt2
ZrBRh3,mp-1068661,0.0,6.4804011,0.0,icsd-615353,"{40: 1, 5: 1, 45: 3}","[5, 40, 45]",51401453,Zr1B1Rh3
Zr2BIr6,mp-1078623,0.0,8.44818681,0.0,icsd-421246,"{40: 2, 5: 1, 77: 6}","[5, 40, 77]",51402776,Zr2B1Ir6
Zr5Sn3B,mp-1188408,0.0,6.51071241,0.0,icsd-656289,"{40: 5, 50: 3, 5: 1}","[5, 40, 50]",51405503,Zr5Sn3B1
Zr6BI12,mp-760421,0.0,4.3120093,0.0,icsd-202103,"{40: 6, 5: 1, 53: 12}","[5, 40, 53]",514065312,Zr6B1I12
CsZr6BI14,mp-571410,0.7638000000000003,3.38904542,0.0,icsd-202102,"{55: 1, 40: 6, 5: 1, 53: 14}","[5, 40, 53, 55]",514065314551,Cs1Zr6B1I14
NbB,mp-2580,0.0,7.03086902,0.0,icsd-42953,"{41: 1, 5: 1}","[5, 41]",51411,Nb1B1
Ca7(B7Rh10)2,mp-568511,0.0,4.52097631,0.0,icsd-66773,"{20: 7, 5: 14, 45: 20}","[5, 20, 45]",5142074520,Ca7B14Rh20
BMo,mp-1890,0.0,9.71915682,0.0,icsd-24280,"{5: 1, 42: 1}","[5, 42]",51421,B1Mo1
Tc3B,mp-1087495,0.0,8.79495061,0.0,icsd-615555,"{43: 3, 5: 1}","[5, 43]",51433,Tc3B1
TaBRu,mp-1195237,0.0,7.98037185,0.0,icsd-196414,"{73: 1, 5: 1, 44: 1}","[5, 44, 73]",51441731,Ta1B1Ru1
BRh,mp-567164,0.0,7.39308391,0.0,icsd-150732,"{5: 1, 45: 1}","[5, 45]",51451,B1Rh1
LaBRh3,mp-3088,0.0,7.71238095,0.0,icsd-614641,"{57: 1, 5: 1, 45: 3}","[5, 45, 57]",51453571,La1B1Rh3
CeBRh3,mp-510376,0.0,7.58051223,0.0,icsd-612833,"{58: 1, 5: 1, 45: 3}","[5, 45, 58]",51453581,Ce1B1Rh3
PrBRh3,mp-5200,0.0,5.76641024,0.0,icsd-44548,"{59: 1, 5: 1, 45: 3}","[5, 45, 59]",51453591,Pr1B1Rh3
NdBRh3,mp-3591,0.0,5.72959537,0.0,icsd-614955,"{60: 1, 5: 1, 45: 3}","[5, 45, 60]",51453601,Nd1B1Rh3
SmBRh3,mp-4982,0.0,5.63253023,0.0,icsd-44563,"{62: 1, 5: 1, 45: 3}","[5, 45, 62]",51453621,Sm1B1Rh3
GdBRh3,mp-19840,0.0,5.29811856,0.0,icsd-44310,"{64: 1, 5: 1, 45: 3}","[5, 45, 64]",51453641,Gd1B1Rh3
TbBRh3,mp-3869,0.0,5.80939212,0.0,icsd-44565,"{65: 1, 5: 1, 45: 3}","[5, 45, 65]",51453651,Tb1B1Rh3
DyBRh3,mp-3183,0.0,5.77188972,0.0,icsd-44211,"{66: 1, 5: 1, 45: 3}","[5, 45, 66]",51453661,Dy1B1Rh3
HoBRh3,mp-3710,0.0,5.72779266,0.0,icsd-614499,"{67: 1, 5: 1, 45: 3}","[5, 45, 67]",51453671,Ho1B1Rh3
ErBRh3,mp-3769,0.0,5.74681413,0.0,icsd-44237,"{68: 1, 5: 1, 45: 3}","[5, 45, 68]",51453681,Er1B1Rh3
TmBRh3,mp-5438,0.0,5.72030745,0.0,icsd-615332,"{69: 1, 5: 1, 45: 3}","[5, 45, 69]",51453691,Tm1B1Rh3
LuBRh3,mp-3717,0.0,5.720234,0.0,icsd-614702,"{71: 1, 5: 1, 45: 3}","[5, 45, 71]",51453711,Lu1B1Rh3
HfBRh3,mp-1017578,0.0,6.63210732,0.0,icsd-614447,"{72: 1, 5: 1, 45: 3}","[5, 45, 72]",51453721,Hf1B1Rh3
ThBRh3,mp-1206772,0.0,7.7373823,0.0,pf-32161,"{90: 1, 5: 1, 45: 3}","[5, 45, 90]",51453901,Th1B1Rh3
Sn4BRh6,mp-30061,0.0,7.85278288,0.0,icsd-77353,"{50: 4, 5: 1, 45: 6}","[5, 45, 50]",51456504,Sn4B1Rh6
BIrPd,mp-28897,0.0,6.40485695,0.0,icsd-75030,"{5: 1, 77: 1, 46: 1}","[5, 46, 77]",51461771,B1Ir1Pd1
BPd2,mp-7424,0.0,5.2143708,0.0,icsd-10487,"{5: 1, 46: 2}","[5, 46]",51462,B1Pd2
BPd3,mp-20517,0.0,5.08191203,0.0,icsd-94235,"{5: 1, 46: 3}","[5, 46]",51463,B1Pd3
BaBPd4,mp-1191182,0.0,4.18298911,0.0,icsd-247264,"{56: 1, 5: 1, 46: 4}","[5, 46, 56]",51464561,Ba1B1Pd4
BPd5,mp-1190529,0.0,4.63012109,0.0,icsd-192021,"{5: 1, 46: 5}","[5, 46]",51465,B1Pd5
BPd6,mp-1214755,0.0,3.9564266,0.0,pf-10542,"{5: 1, 46: 6}","[5, 46]",51466,B1Pd6
Sr4B14O25,mp-559330,5.206200000000001,1.06678092,0.0,icsd-250446,"{38: 4, 5: 14, 8: 25}","[5, 8, 38]",514825384,Sr4B14O25
La4B14O27,mp-645962,3.9245000000000005,3.37075295,0.0,icsd-418109,"{57: 4, 5: 14, 8: 27}","[5, 8, 57]",514827574,La4B14O27
Ba4Zn4B14Pb2O31,mp-1195127,3.6828,1.16875786,0.0,icsd-238678,"{56: 4, 30: 4, 5: 14, 82: 2, 8: 31}","[5, 8, 30, 56, 82]",514831304564822,Ba4Zn4B14Pb2O31
NaB15,mp-2315,0.0,5.19894855,0.0,icsd-18319,"{11: 1, 5: 15}","[5, 11]",515111,Na1B15
Ta4BTe8,mp-505499,0.0,5.73404393,0.0,icsd-410843,"{73: 4, 5: 1, 52: 8}","[5, 52, 73]",51528734,Ta4B1Te8
BI3,mp-23189,2.6901,-0.6082331,0.0,icsd-173375,"{5: 1, 53: 3}","[5, 53]",51533,B1I3
LaBPt2,mp-31052,0.0,7.95654057,0.0,icsd-98425,"{57: 1, 5: 1, 78: 2}","[5, 57, 78]",51571782,La1B1Pt2
LaBPt4,mp-1211262,0.0,7.98450874,0.0,pf-35334,"{57: 1, 5: 1, 78: 4}","[5, 57, 78]",51571784,La1B1Pt4
CeBPt3,mp-22435,0.0,8.16854071,0.0,icsd-95049,"{58: 1, 5: 1, 78: 3}","[5, 58, 78]",51581783,Ce1B1Pt3
CeBPt4,mp-20051,0.0,7.73695499,0.0,icsd-55455,"{58: 1, 5: 1, 78: 4}","[5, 58, 78]",51581784,Ce1B1Pt4
CsAg2(B5O8)3,mp-679997,3.5033000000000003,0.21747745,0.0,icsd-408026,"{55: 1, 47: 2, 5: 15, 8: 24}","[5, 8, 47, 55]",515824472551,Cs1Ag2B15O24
PrBPt2,mp-1209526,0.0,6.02584771,0.0,pf-25041,"{59: 1, 5: 1, 78: 2}","[5, 59, 78]",51591782,Pr1B1Pt2
PrBPt3,mp-11596,0.0,6.63589899,0.0,icsd-97370,"{59: 1, 5: 1, 78: 3}","[5, 59, 78]",51591783,Pr1B1Pt3
PrBPt4,mp-13483,0.0,6.47777626,0.0,icsd-55454,"{59: 1, 5: 1, 78: 4}","[5, 59, 78]",51591784,Pr1B1Pt4
NdBPt2,mp-569341,0.0,5.75614931,0.0,icsd-98426,"{60: 1, 5: 1, 78: 2}","[5, 60, 78]",51601782,Nd1B1Pt2
NdBPt3,mp-11597,0.0,6.55258416,0.0,icsd-97371,"{60: 1, 5: 1, 78: 3}","[5, 60, 78]",51601783,Nd1B1Pt3
NdBPt4,mp-1209829,0.0,6.44301754,0.0,pf-3881,"{60: 1, 5: 1, 78: 4}","[5, 60, 78]",51601784,Nd1B1Pt4
LaBC,mp-568090,0.0,8.41936936,0.0,icsd-414489,"{57: 1, 5: 1, 6: 1}","[5, 6, 57]",5161571,La1B1C1
Pr2BC,mp-1078268,0.0,3.55748178,0.0,icsd-291531,"{59: 2, 5: 1, 6: 1}","[5, 6, 59]",5161592,Pr2B1C1
NdBC,mp-568966,0.0,5.12872266,0.0,icsd-419027,"{60: 1, 5: 1, 6: 1}","[5, 6, 60]",5161601,Nd1B1C1
Nd2BC,mp-864790,0.0,3.48406275,0.0,icsd-422007,"{60: 2, 5: 1, 6: 1}","[5, 6, 60]",5161602,Nd2B1C1
SmBC,mp-1208749,0.0,5.07613525,0.0,pf-16357,"{62: 1, 5: 1, 6: 1}","[5, 6, 62]",5161621,Sm1B1C1
Ca3BCNCl2,mp-649453,2.1079000000000003,3.38127189,0.0,icsd-33850,"{20: 3, 5: 1, 6: 1, 7: 1, 17: 2}","[5, 6, 7, 17, 20]",516171172203,Ca3B1C1N1Cl2
Sr3BCNCl2,mp-616577,1.8787999999999996,2.69847449,0.0,icsd-74914,"{38: 3, 5: 1, 6: 1, 7: 1, 17: 2}","[5, 6, 7, 17, 38]",516171172383,Sr3B1C1N1Cl2
Ca3BCBr2N,mp-1214049,2.2271,5.0372331,0.0,pf-26682,"{20: 3, 5: 1, 6: 1, 35: 2, 7: 1}","[5, 6, 7, 20, 35]",516171203352,Ca3B1C1Br2N1
ThBC,mp-570254,0.0,7.14033051,0.0,icsd-2368,"{90: 1, 5: 1, 6: 1}","[5, 6, 90]",5161901,Th1B1C1
UBC,mp-5816,0.0,10.9472493,0.0,icsd-73828,"{92: 1, 5: 1, 6: 1}","[5, 6, 92]",5161921,U1B1C1
Sc2BC2,mp-10343,0.0,5.48724372,0.0,icsd-88804,"{21: 2, 5: 1, 6: 2}","[5, 6, 21]",5162212,Sc2B1C2
EuBPt4,mp-1103637,0.0,5.81305857,0.0,icsd-237660,"{63: 1, 5: 1, 78: 4}","[5, 63, 78]",51631784,Eu1B1Pt4
Lu3BC3,mp-10566,0.0,4.20583994,0.0,icsd-411641,"{71: 3, 5: 1, 6: 3}","[5, 6, 71]",5163713,Lu3B1C3
TmBPt2,mp-1103146,0.0,5.94304015,0.0,icsd-290817,"{69: 1, 5: 1, 78: 2}","[5, 69, 78]",51691782,Tm1B1Pt2
BN,mp-604884,4.3683,2.25632505,0.0,icsd-186249,"{5: 1, 7: 1}","[5, 7]",5171,B1N1
LuBPt2,mp-1095320,0.0,5.94184872,0.0,icsd-195079,"{71: 1, 5: 1, 78: 2}","[5, 71, 78]",51711782,Lu1B1Pt2
BN(OF2)2,mp-555207,3.0021999999999998,-2.93167039,0.0,icsd-240721,"{5: 1, 7: 1, 8: 2, 9: 4}","[5, 7, 8, 9]",51718294,B1N1O2F4
UBN,mp-5311,0.0,11.9347842,0.0,icsd-71067,"{92: 1, 5: 1, 7: 1}","[5, 7, 92]",5171921,U1B1N1
BNF8,mp-4674,2.9979,-2.83626763,0.0,icsd-68017,"{5: 1, 7: 1, 9: 8}","[5, 7, 9]",517198,B1N1F8
KNa2BN2,mp-1019888,1.8180999999999998,1.39552809,0.0,icsd-236557,"{19: 1, 11: 2, 5: 1, 7: 2}","[5, 7, 11, 19]",5172112191,K1Na2B1N2
Na3BN2,mp-28630,1.6485000000000003,1.43576793,0.0,icsd-68619,"{11: 3, 5: 1, 7: 2}","[5, 7, 11]",5172113,Na3B1N2
Ca2BN2Cl,mp-23632,3.333,2.18110453,0.0,icsd-50844,"{20: 2, 5: 1, 7: 2, 17: 1}","[5, 7, 17, 20]",5172171202,Ca2B1N2Cl1
Sr2BN2Cl,mp-23131,2.7508,1.73988163,0.0,icsd-406392,"{38: 2, 5: 1, 7: 2, 17: 1}","[5, 7, 17, 38]",5172171382,Sr2B1N2Cl1
Ba2BN2Cl,mp-568923,2.7508,1.69113131,0.0,icsd-418947,"{56: 2, 5: 1, 7: 2, 17: 1}","[5, 7, 17, 56]",5172171562,Ba2B1N2Cl1
Ca3BI3N2,mp-1195197,3.9459999999999997,1.44950382,0.0,icsd-238720,"{20: 3, 5: 1, 53: 3, 7: 2}","[5, 7, 20, 53]",5172203533,Ca3B1I3N2
Sr2BBrN2,mp-1077553,2.4076,1.51197353,0.0,icsd-261795,"{38: 2, 5: 1, 35: 1, 7: 2}","[5, 7, 35, 38]",5172351382,Sr2B1Br1N2
Eu2BBrN2,mp-1077381,0.0,4.64389404,0.0,icsd-409982,"{63: 2, 5: 1, 35: 1, 7: 2}","[5, 7, 35, 63]",5172351632,Eu2B1Br1N2
Sr2BIN2,mp-569810,2.5325999999999995,1.77565438,0.0,icsd-50598,"{38: 2, 5: 1, 53: 1, 7: 2}","[5, 7, 38, 53]",5172382531,Sr2B1I1N2
Eu2BIN2,mp-1192731,0.18949999999999978,4.47893743,0.0,icsd-261796,"{63: 2, 5: 1, 53: 1, 7: 2}","[5, 7, 53, 63]",5172531632,Eu2B1I1N2
LaBN2,mp-29597,2.1727999999999996,6.9589824,0.0,icsd-410598,"{57: 1, 5: 1, 7: 2}","[5, 7, 57]",5172571,La1B1N2
PrBN2,mp-9028,2.1062000000000003,3.85478774,0.0,icsd-410124,"{59: 1, 5: 1, 7: 2}","[5, 7, 59]",5172591,Pr1B1N2
EuBN2,mp-1019734,0.0,3.12614175,0.0,icsd-252704,"{63: 1, 5: 1, 7: 2}","[5, 7, 63]",5172631,Eu1B1N2
Ca2BN2F,mp-10233,2.9265,2.47755298,0.0,icsd-50842,"{20: 2, 5: 1, 7: 2, 9: 1}","[5, 7, 9, 20]",517291202,Ca2B1N2F1
Sr2BN2F,mp-10234,2.5675,2.0463315,0.0,icsd-50843,"{38: 2, 5: 1, 7: 2, 9: 1}","[5, 7, 9, 38]",517291382,Sr2B1N2F1
Hf9Re4B,mp-1193562,0.0,5.5351145,0.0,icsd-614446,"{72: 9, 75: 4, 5: 1}","[5, 72, 75]",51729754,Hf9Re4B1
TaB,mp-1097,0.0,7.93101406,0.0,icsd-191903,"{73: 1, 5: 1}","[5, 73]",51731,Ta1B1
Ca3BN3,mp-30315,0.5682,4.22677379,0.0,icsd-95814,"{20: 3, 5: 1, 7: 3}","[5, 7, 20]",5173203,Ca3B1N3
BW,mp-7832,0.0,9.03897167,0.0,icsd-424240,"{5: 1, 74: 1}","[5, 74]",51741,B1W1
BW2,mp-1113,0.0,7.79395943,0.0,icsd-615692,"{5: 1, 74: 2}","[5, 74]",51742,B1W2
Re3B,mp-15671,0.0,8.08525993,0.0,icsd-43662,"{75: 3, 5: 1}","[5, 75]",51753,Re3B1