formula,material_id,band_gap,efermi,energy_above_hull,database_IDs,comp_atoms,sorted_keys_comp_atoms,comp_number,new_formula
PuB4Os,mp-1191689,0.0,10.59549533,0.0,icsd-615123,"{94: 1, 5: 4, 76: 1}","[5, 76, 94]",54761941,Pu1B4Os1
Th(BOs)4,mp-1179056,0.24289999999999967,8.16085064,0.0,icsd-615133,"{90: 1, 5: 4, 76: 4}","[5, 76, 90]",54764901,Th1B4Os4
Th(BIr)4,mp-1106302,0.0,8.78765491,0.0,icsd-614569,"{90: 1, 5: 4, 77: 4}","[5, 77, 90]",54774901,Th1B4Ir4
SrBi2(B2O5)2,mp-559364,3.6402,2.38602501,0.0,icsd-166828,"{38: 1, 83: 2, 5: 4, 8: 10}","[5, 8, 38, 83]",54810381832,Sr1Bi2B4O10
BaBi2(B2O5)2,mp-560550,3.3497999999999997,3.21503849,0.0,icsd-417181,"{56: 1, 83: 2, 5: 4, 8: 10}","[5, 8, 56, 83]",54810561832,Ba1Bi2B4O10
Ba5B4O11,mp-3974,3.7916999999999996,1.70087068,0.0,icsd-172399,"{56: 5, 5: 4, 8: 11}","[5, 8, 56]",54811565,Ba5B4O11
K3Y3(BO3)4,mp-642313,4.1596,0.84159617,0.0,icsd-160320,"{19: 3, 39: 3, 5: 4, 8: 12}","[5, 8, 19, 39]",54812193393,K3Y3B4O12
LaSc3(BO3)4,mp-6217,4.2334,2.70776222,0.0,icsd-83405,"{57: 1, 21: 3, 5: 4, 8: 12}","[5, 8, 21, 57]",54812213571,La1Sc3B4O12
CeSc3(BO3)4,mp-16097,0.2621000000000002,5.51685817,0.0,icsd-90839,"{58: 1, 21: 3, 5: 4, 8: 12}","[5, 8, 21, 58]",54812213581,Ce1Sc3B4O12
PrSc3(BO3)4,mp-18677,4.1066,1.93578874,0.0,icsd-91568,"{59: 1, 21: 3, 5: 4, 8: 12}","[5, 8, 21, 59]",54812213591,Pr1Sc3B4O12
Rb3La3(BO3)4,mp-1209773,3.8383000000000003,2.09647724,0.0,pf-39610,"{37: 3, 57: 3, 5: 4, 8: 12}","[5, 8, 37, 57]",54812373573,Rb3La3B4O12
Sr3Tb2(BO3)4,mp-1209532,4.525600000000001,6.36832144,0.0,pf-16723,"{38: 3, 65: 2, 5: 4, 8: 12}","[5, 8, 38, 65]",54812383652,Sr3Tb2B4O12
Cd3B4(PbO4)3,mp-1196945,2.6739999999999995,2.01346044,0.0,icsd-422862,"{48: 3, 5: 4, 82: 3, 8: 12}","[5, 8, 48, 82]",54812483823,Cd3B4Pb3O12
BaB4(SbO6)2,mp-1195214,3.3759000000000006,1.85586572,0.0,icsd-238074,"{56: 1, 5: 4, 51: 2, 8: 12}","[5, 8, 51, 56]",54812512561,Ba1B4Sb2O12
La13(B2O13)2,mp-1196229,0.0,4.70649049,0.0,icsd-417614,"{57: 13, 5: 4, 8: 26}","[5, 8, 57]",548265713,La13B4O26
Na2B4O7,mp-17941,4.618,0.1179451,0.0,icsd-2040,"{11: 2, 5: 4, 8: 7}","[5, 8, 11]",5487112,Na2B4O7
K2B4O7,mp-17166,4.821,0.12766551,0.0,icsd-2833,"{19: 2, 5: 4, 8: 7}","[5, 8, 19]",5487192,K2B4O7
CaB4O7,mp-556214,6.1768,1.29259323,0.0,icsd-200081,"{20: 1, 5: 4, 8: 7}","[5, 8, 20]",5487201,Ca1B4O7
MnB4O7,mp-12209,4.7101999999999995,0.70805301,0.0,icsd-6170,"{25: 1, 5: 4, 8: 7}","[5, 8, 25]",5487251,Mn1B4O7
ZnB4O7,mp-12233,4.6601,0.04501334,0.0,icsd-424545,"{30: 1, 5: 4, 8: 7}","[5, 8, 30]",5487301,Zn1B4O7
Rb2B4O7,mp-16980,4.594,0.26199016,0.0,icsd-85093,"{37: 2, 5: 4, 8: 7}","[5, 8, 37]",5487372,Rb2B4O7
CdB4O7,mp-13603,3.9877000000000002,0.00712637,0.0,icsd-14361,"{48: 1, 5: 4, 8: 7}","[5, 8, 48]",5487481,Cd1B4O7
SnB4O7,mp-13252,3.571999999999999,5.1445037,0.0,icsd-249206,"{50: 1, 5: 4, 8: 7}","[5, 8, 50]",5487501,Sn1B4O7
BaB4O7,mp-27692,5.1593,0.8397026,0.0,icsd-236882,"{56: 1, 5: 4, 8: 7}","[5, 8, 56]",5487561,Ba1B4O7
EuB4O7,mp-8109,1.912399999999999,7.42890695,0.0,icsd-30507,"{63: 1, 5: 4, 8: 7}","[5, 8, 63]",5487631,Eu1B4O7
HgB4O7,mp-16585,2.5834,0.06105233,0.0,icsd-281287,"{80: 1, 5: 4, 8: 7}","[5, 8, 80]",5487801,Hg1B4O7
Tl2B4O7,mp-16457,3.3162000000000003,1.65228436,0.0,icsd-93745,"{81: 2, 5: 4, 8: 7}","[5, 8, 81]",5487812,Tl2B4O7
B4PbO7,mp-9747,4.208499999999999,4.54912917,0.0,icsd-203201,"{5: 4, 82: 1, 8: 7}","[5, 8, 82]",5487821,B4Pb1O7
Th(BO2)4,mp-1194365,4.4289,4.229028,0.0,icsd-426310,"{90: 1, 5: 4, 8: 8}","[5, 8, 90]",5488901,Th1B4O8
Rb2GeB4O9,mp-1020707,3.8449,0.00921541,0.0,icsd-261333,"{37: 2, 32: 1, 5: 4, 8: 9}","[5, 8, 32, 37]",5489321372,Rb2Ge1B4O9
ThB4,mp-542573,0.0,8.63595444,0.0,icsd-615570,"{90: 1, 5: 4}","[5, 90]",54901,Th1B4
UB4,mp-619,0.0,10.40772114,0.0,icsd-656928,"{92: 1, 5: 4}","[5, 92]",54921,U1B4
NpB4,mp-1188425,0.0,10.43633868,0.0,icsd-615107,"{93: 1, 5: 4}","[5, 93]",54931,Np1B4
PuB4,mp-20467,0.0,9.96884724,0.0,icsd-43659,"{94: 1, 5: 4}","[5, 94]",54941,Pu1B4
Na3B5S9,mp-29000,3.5062999999999995,5.27984011,0.0,icsd-78993,"{11: 3, 5: 5, 16: 9}","[5, 11, 16]",55113169,Na3B5S9
Na3B5Pt9,mp-505055,0.0,5.81163722,0.0,icsd-68093,"{11: 3, 5: 5, 78: 9}","[5, 11, 78]",55113789,Na3B5Pt9
Ca2B5Os3,mp-542455,0.0,5.24891696,0.0,icsd-59227,"{20: 2, 5: 5, 76: 3}","[5, 20, 76]",55202763,Ca2B5Os3
Cu3B5Pt9,mp-1105186,0.0,7.19460792,0.0,icsd-429502,"{29: 3, 5: 5, 78: 9}","[5, 29, 78]",55293789,Cu3B5Pt9
Pr2B5,mp-16713,0.0,5.09814407,0.0,icsd-250070,"{59: 2, 5: 5}","[5, 59]",55592,Pr2B5
Nd2B5,mp-567415,0.0,5.00297794,0.0,icsd-154655,"{60: 2, 5: 5}","[5, 60]",55602,Nd2B5
Sm2B5,mp-570421,0.0,4.84152896,0.0,icsd-615474,"{62: 2, 5: 5}","[5, 62]",55622,Sm2B5
Eu2B5Os3,mp-582389,0.0,5.22212604,0.0,icsd-59228,"{63: 2, 5: 5, 76: 3}","[5, 63, 76]",55632763,Eu2B5Os3
Gd2B5,mp-28366,0.0,4.80748213,0.0,icsd-614308,"{64: 2, 5: 5}","[5, 64]",55642,Gd2B5
Ba8B5N10F,mp-561502,2.2163,1.7421384,0.0,icsd-50599,"{56: 8, 5: 5, 7: 10, 9: 1}","[5, 7, 9, 56]",5571091568,Ba8B5N10F1
K2NaZn(BO2)5,mp-1019787,4.2332,-0.3792813,0.0,icsd-167139,"{19: 2, 11: 1, 30: 1, 5: 5, 8: 10}","[5, 8, 11, 19, 30]",55810111192301,K2Na1Zn1B5O10
Na3Ca(BO2)5,mp-542719,4.556699999999999,0.57233471,0.0,icsd-417958,"{11: 3, 20: 1, 5: 5, 8: 10}","[5, 8, 11, 20]",55810113201,Na3Ca1B5O10
Na3Zn(BO2)5,mp-560158,4.035,0.05397791,0.0,icsd-417848,"{11: 3, 30: 1, 5: 5, 8: 10}","[5, 8, 11, 30]",55810113301,Na3Zn1B5O10
Na3Sr(BO2)5,mp-6775,4.5614,0.349205,0.0,icsd-260007,"{11: 3, 38: 1, 5: 5, 8: 10}","[5, 8, 11, 38]",55810113381,Na3Sr1B5O10
K3Zn(BO2)5,mp-1019786,4.0518,-0.49017949,0.0,icsd-262977,"{19: 3, 30: 1, 5: 5, 8: 10}","[5, 8, 19, 30]",55810193301,K3Zn1B5O10
K3Cd(BO2)5,mp-1204785,3.8179999999999996,3.27183515,0.0,icsd-261756,"{19: 3, 48: 1, 5: 5, 8: 10}","[5, 8, 19, 48]",55810193481,K3Cd1B5O10
Rb3Zn(BO2)5,mp-1020643,4.1752,-0.5318926,0.0,icsd-425890,"{37: 3, 30: 1, 5: 5, 8: 10}","[5, 8, 30, 37]",55810301373,Rb3Zn1B5O10
Rb3Cd(BO2)5,mp-1200569,3.7196,3.10667751,0.0,icsd-425889,"{37: 3, 48: 1, 5: 5, 8: 10}","[5, 8, 37, 48]",55810373481,Rb3Cd1B5O10
LaCd(BO2)5,mp-14555,4.211,2.77689615,0.0,icsd-59246,"{57: 1, 48: 1, 5: 5, 8: 10}","[5, 8, 48, 57]",55810481571,La1Cd1B5O10
K2SrVB5O12,mp-1200300,3.9009,-0.27602925,0.0,icsd-185934,"{19: 2, 38: 1, 23: 1, 5: 5, 8: 12}","[5, 8, 19, 23, 38]",55812192231381,K2Sr1V1B5O12
Sc3B5O12,mp-1203138,3.7969000000000004,3.8387168,0.0,icsd-421030,"{21: 3, 5: 5, 8: 12}","[5, 8, 21]",55812213,Sc3B5O12
Tm3B5O12,mp-558534,5.3919,3.01389658,0.0,icsd-171208,"{69: 3, 5: 5, 8: 12}","[5, 8, 69]",55812693,Tm3B5O12
Ba3ZnB5PO14,mp-1019525,4.8405000000000005,1.11659374,0.0,icsd-430062,"{56: 3, 30: 1, 5: 5, 15: 1, 8: 14}","[5, 8, 15, 30, 56]",55814151301563,Ba3Zn1B5P1O14
Ca3La3(BO3)5,mp-6709,4.1370000000000005,3.88763277,0.0,icsd-93394,"{20: 3, 57: 3, 5: 5, 8: 15}","[5, 8, 20, 57]",55815203573,Ca3La3B5O15
KB5O8,mp-1197506,6.014900000000001,-0.75793553,0.0,icsd-35486,"{19: 1, 5: 5, 8: 8}","[5, 8, 19]",5588191,K1B5O8
RbB5O8,mp-561814,5.9404,-1.00253795,0.0,icsd-92570,"{37: 1, 5: 5, 8: 8}","[5, 8, 37]",5588371,Rb1B5O8
CsB5O8,mp-581194,5.9417,-1.00037207,0.0,icsd-155978,"{55: 1, 5: 5, 8: 8}","[5, 8, 55]",5588551,Cs1B5O8
TlB5O8,mp-680122,5.1834,0.21401494,0.0,icsd-50927,"{81: 1, 5: 5, 8: 8}","[5, 8, 81]",5588811,Tl1B5O8
NaSrB5O9,mp-561514,5.2309,0.56004502,0.0,icsd-245570,"{11: 1, 38: 1, 5: 5, 8: 9}","[5, 8, 11, 38]",5589111381,Na1Sr1B5O9
BaNaB5O9,mp-1019554,5.0076,0.36805424,0.0,icsd-424353,"{56: 1, 11: 1, 5: 5, 8: 9}","[5, 8, 11, 56]",5589111561,Ba1Na1B5O9
NaB5PbO9,mp-1199541,4.586,1.18461696,0.0,icsd-261472,"{11: 1, 5: 5, 82: 1, 8: 9}","[5, 8, 11, 82]",5589111821,Na1B5Pb1O9
Ca2B5ClO9,mp-1214176,5.2728,0.95805232,0.0,pf-21478,"{20: 2, 5: 5, 17: 1, 8: 9}","[5, 8, 17, 20]",5589171202,Ca2B5Cl1O9
Sr2B5ClO9,mp-557330,5.3411,0.68002521,0.0,icsd-246037,"{38: 2, 5: 5, 17: 1, 8: 9}","[5, 8, 17, 38]",5589171382,Sr2B5Cl1O9
Ba2B5ClO9,mp-555742,5.2417,0.59572933,0.0,icsd-409640,"{56: 2, 5: 5, 17: 1, 8: 9}","[5, 8, 17, 56]",5589171562,Ba2B5Cl1O9
Eu2B5ClO9,mp-553918,0.8729000000000005,5.74679152,0.0,icsd-86477,"{63: 2, 5: 5, 17: 1, 8: 9}","[5, 8, 17, 63]",5589171632,Eu2B5Cl1O9
B5Pb2ClO9,mp-557103,3.4890000000000003,1.97402595,0.0,icsd-246036,"{5: 5, 82: 2, 17: 1, 8: 9}","[5, 8, 17, 82]",5589171822,B5Pb2Cl1O9
KSrB5O9,mp-556250,5.1442000000000005,0.30215102,0.0,icsd-79716,"{19: 1, 38: 1, 5: 5, 8: 9}","[5, 8, 19, 38]",5589191381,K1Sr1B5O9
KBaB5O9,mp-557420,4.8693,0.22717837,0.0,icsd-424354,"{19: 1, 56: 1, 5: 5, 8: 9}","[5, 8, 19, 56]",5589191561,K1Ba1B5O9
Ca2B5BrO9,mp-554056,5.2036,0.98508418,0.0,icsd-18001,"{20: 2, 5: 5, 35: 1, 8: 9}","[5, 8, 20, 35]",5589202351,Ca2B5Br1O9
Sr2B5BrO9,mp-1209005,5.164300000000001,0.7184729,0.0,pf-30613,"{38: 2, 5: 5, 35: 1, 8: 9}","[5, 8, 35, 38]",5589351382,Sr2B5Br1O9
Ba2B5BrO9,mp-1214841,5.3458,5.89487908,0.0,pf-20138,"{56: 2, 5: 5, 35: 1, 8: 9}","[5, 8, 35, 56]",5589351562,Ba2B5Br1O9
Eu2B5BrO9,mp-558834,0.8801000000000005,5.69917516,0.0,icsd-16364,"{63: 2, 5: 5, 35: 1, 8: 9}","[5, 8, 35, 63]",5589351632,Eu2B5Br1O9
B5Pb2BrO9,mp-23623,3.4053000000000004,2.09584324,0.0,icsd-59861,"{5: 5, 82: 2, 35: 1, 8: 9}","[5, 8, 35, 82]",5589351822,B5Pb2Br1O9
B5Pb2IO9,mp-1200548,3.3111,2.8538655,0.0,icsd-260934,"{5: 5, 82: 2, 53: 1, 8: 9}","[5, 8, 53, 82]",5589531822,B5Pb2I1O9
LaB5O9,mp-30926,4.4878,2.4835074,0.0,icsd-281632,"{57: 1, 5: 5, 8: 9}","[5, 8, 57]",5589571,La1B5O9
B6P,mp-28395,2.4757,5.21319273,0.0,icsd-62748,"{5: 6, 15: 1}","[5, 15]",56151,B6P1
Ag(BCl)6,mp-567334,2.6955,0.47279786,0.0,icsd-98669,"{47: 1, 5: 6, 17: 6}","[5, 17, 47]",56176471,Ag1B6Cl6
Cs(BCl)6,mp-570530,3.2599,-0.482149,0.0,icsd-151975,"{55: 1, 5: 6, 17: 6}","[5, 17, 55]",56176551,Cs1B6Cl6
KB6,mp-1076,0.0,2.94515987,0.0,icsd-44427,"{19: 1, 5: 6}","[5, 19]",56191,K1B6
CaB6,mp-865,0.0,4.7383542,0.0,icsd-612689,"{20: 1, 5: 6}","[5, 20]",56201,Ca1B6
Ca3(B3Rh4)2,mp-569257,0.0,5.88904631,0.0,icsd-66770,"{20: 3, 5: 6, 45: 8}","[5, 20, 45]",56203458,Ca3B6Rh8
Sc2CrB6,mp-510306,0.0,6.54052753,0.0,icsd-99646,"{21: 2, 24: 1, 5: 6}","[5, 21, 24]",56212241,Sc2Cr1B6
Sc2B6Rh,mp-569116,0.0,7.23084881,0.0,icsd-152716,"{21: 2, 5: 6, 45: 1}","[5, 21, 45]",56212451,Sc2B6Rh1
Sc2ReB6,mp-1196116,0.0,6.71452162,0.0,icsd-615245,"{21: 2, 75: 1, 5: 6}","[5, 21, 75]",56212751,Sc2Re1B6
Sc2B6Ir,mp-1209019,0.0,7.92947457,0.0,pf-20376,"{21: 2, 5: 6, 77: 1}","[5, 21, 77]",56212771,Sc2B6Ir1
Ti2(Co7B2)3,mp-1193707,0.0,6.06723505,0.0,icsd-613352,"{22: 2, 27: 21, 5: 6}","[5, 22, 27]",562222721,Ti2Co21B6
V2(Co7B2)3,mp-1193908,0.0,6.10456606,0.0,icsd-613383,"{23: 2, 27: 21, 5: 6}","[5, 23, 27]",562322721,V2Co21B6
V5B6,mp-1206441,0.0,7.90459362,0.0,pf-35819,"{23: 5, 5: 6}","[5, 23]",56235,V5B6
Ce(CrB3)2,mp-2873,0.0,8.56549502,0.0,icsd-16203,"{58: 1, 24: 2, 5: 6}","[5, 24, 58]",56242581,Ce1Cr2B6
Th(CrB3)2,mp-9357,0.0,8.48037446,0.0,icsd-81543,"{90: 1, 24: 2, 5: 6}","[5, 24, 90]",56242901,Th1Cr2B6
Lu2FeB6,mp-505545,0.0,6.04391493,0.0,icsd-44247,"{71: 2, 26: 1, 5: 6}","[5, 26, 71]",56261712,Lu2Fe1B6
Ce5(FeB3)2,mp-1105171,0.0,8.47299736,0.0,icsd-657450,"{58: 5, 26: 2, 5: 6}","[5, 26, 58]",56262585,Ce5Fe2B6
Nd5(FeB3)2,mp-8793,0.0,4.7698549,0.0,icsd-68328,"{60: 5, 26: 2, 5: 6}","[5, 26, 60]",56262605,Nd5Fe2B6
U(FeB3)2,mp-1087505,0.0,9.85442209,0.0,icsd-167153,"{92: 1, 26: 2, 5: 6}","[5, 26, 92]",56262921,U1Fe2B6
Y(Co2B)6,mp-1188251,0.0,5.87623236,0.0,icsd-613420,"{39: 1, 27: 12, 5: 6}","[5, 27, 39]",562712391,Y1Co12B6
La(Co2B)6,mp-1106274,0.0,6.67208231,0.0,icsd-190843,"{57: 1, 27: 12, 5: 6}","[5, 27, 57]",562712571,La1Co12B6
Ce(Co2B)6,mp-1205398,0.0,6.55891739,0.0,icsd-612736,"{58: 1, 27: 12, 5: 6}","[5, 27, 58]",562712581,Ce1Co12B6
Pr(Co2B)6,mp-1105562,0.0,5.91277561,0.0,icsd-613234,"{59: 1, 27: 12, 5: 6}","[5, 27, 59]",562712591,Pr1Co12B6
Nd(Co2B)6,mp-1105815,0.0,5.88339343,0.0,icsd-613195,"{60: 1, 27: 12, 5: 6}","[5, 27, 60]",562712601,Nd1Co12B6
Sm(Co2B)6,mp-1105798,0.0,5.80309152,0.0,icsd-613289,"{62: 1, 27: 12, 5: 6}","[5, 27, 62]",562712621,Sm1Co12B6
Gd(Co2B)6,mp-645286,0.0,5.84753024,0.0,icsd-417868,"{64: 1, 27: 12, 5: 6}","[5, 27, 64]",562712641,Gd1Co12B6
Tb(Co2B)6,mp-1188842,0.0,5.87596866,0.0,icsd-613339,"{65: 1, 27: 12, 5: 6}","[5, 27, 65]",562712651,Tb1Co12B6
Dy(Co2B)6,mp-1106057,0.0,5.88654555,0.0,icsd-612901,"{66: 1, 27: 12, 5: 6}","[5, 27, 66]",562712661,Dy1Co12B6
Ho(Co2B)6,mp-1105128,0.0,5.85251258,0.0,icsd-613109,"{67: 1, 27: 12, 5: 6}","[5, 27, 67]",562712671,Ho1Co12B6
Er(Co2B)6,mp-1188589,0.0,5.83449218,0.0,icsd-612920,"{68: 1, 27: 12, 5: 6}","[5, 27, 68]",562712681,Er1Co12B6
Tm(Co2B)6,mp-1205300,0.0,5.83560829,0.0,icsd-613359,"{69: 1, 27: 12, 5: 6}","[5, 27, 69]",562712691,Tm1Co12B6
Nb2(Co7B2)3,mp-1192832,0.0,6.00323586,0.0,icsd-613174,"{41: 2, 27: 21, 5: 6}","[5, 27, 41]",562721412,Nb2Co21B6
Ta2(Co7B2)3,mp-1193985,0.0,6.10580364,0.0,icsd-613326,"{73: 2, 27: 21, 5: 6}","[5, 27, 73]",562721732,Ta2Co21B6
U2(Co7B2)3,mp-541853,0.0,7.27318108,0.0,icsd-44187,"{92: 2, 27: 21, 5: 6}","[5, 27, 92]",562721922,U2Co21B6
Dy5(CoB3)2,mp-1105042,0.0,4.66036464,0.0,icsd-601082,"{66: 5, 27: 2, 5: 6}","[5, 27, 66]",56272665,Dy5Co2B6
B6As,mp-624,2.6454000000000004,4.53115495,0.0,icsd-62749,"{5: 6, 33: 1}","[5, 33]",56331,B6As1
Cs(BBr)6,mp-569897,2.5949,-0.59579597,0.0,icsd-151976,"{55: 1, 5: 6, 35: 6}","[5, 35, 55]",56356551,Cs1B6Br6
SrB6,mp-242,0.0,4.4717256,0.0,icsd-196517,"{38: 1, 5: 6}","[5, 38]",56381,Sr1B6
Sr3(B3Rh4)2,mp-568771,0.0,5.74146794,0.0,icsd-66771,"{38: 3, 5: 6, 45: 8}","[5, 38, 45]",56383458,Sr3B6Rh8
Y2B6Ru,mp-1196778,0.0,6.5535109,0.0,icsd-427249,"{39: 2, 5: 6, 44: 1}","[5, 39, 44]",56392441,Y2B6Ru1
Y2ReB6,mp-504560,0.0,5.99488832,0.0,icsd-16187,"{39: 2, 75: 1, 5: 6}","[5, 39, 75]",56392751,Y2Re1B6
Y2B6Os,mp-1201886,0.0,6.68815191,0.0,icsd-603494,"{39: 2, 5: 6, 76: 1}","[5, 39, 76]",56392761,Y2B6Os1
Nb5B6,mp-1102394,0.0,7.21024751,0.0,icsd-191900,"{41: 5, 5: 6}","[5, 41]",56415,Nb5B6
U2B6Mo,mp-1195876,0.0,10.5739271,0.0,icsd-614850,"{92: 2, 5: 6, 42: 1}","[5, 42, 92]",56421922,U2B6Mo1
Pu2TcB6,mp-1197233,0.0,11.02720128,0.0,icsd-615234,"{94: 2, 43: 1, 5: 6}","[5, 43, 94]",56431942,Pu2Tc1B6
Tb2B6Ru,mp-1200192,0.0,6.45160358,0.0,icsd-603496,"{65: 2, 5: 6, 44: 1}","[5, 44, 65]",56441652,Tb2B6Ru1
Dy2B6Ru,mp-1198707,0.0,6.4284545,0.0,icsd-603488,"{66: 2, 5: 6, 44: 1}","[5, 44, 66]",56441662,Dy2B6Ru1
Ho2B6Ru,mp-1198017,0.0,6.39511589,0.0,icsd-603498,"{67: 2, 5: 6, 44: 1}","[5, 44, 67]",56441672,Ho2B6Ru1
Er2B6Ru,mp-1198465,0.0,6.47843779,0.0,icsd-603499,"{68: 2, 5: 6, 44: 1}","[5, 44, 68]",56441682,Er2B6Ru1
Tm2B6Ru,mp-1196973,0.0,6.49329289,0.0,icsd-603500,"{69: 2, 5: 6, 44: 1}","[5, 44, 69]",56441692,Tm2B6Ru1
Lu2B6Ru,mp-1201540,0.0,6.50879989,0.0,icsd-614717,"{71: 2, 5: 6, 44: 1}","[5, 44, 71]",56441712,Lu2B6Ru1
La3(B3Ru4)2,mp-4676,0.0,8.17566789,0.0,icsd-159927,"{57: 3, 5: 6, 44: 8}","[5, 44, 57]",56448573,La3B6Ru8
Ho2B6Rh,mp-1212391,0.0,6.33198347,0.0,pf-19959,"{67: 2, 5: 6, 45: 1}","[5, 45, 67]",56451672,Ho2B6Rh1
Er2B6Rh,mp-1212905,0.0,6.3893536,0.0,pf-30443,"{68: 2, 5: 6, 45: 1}","[5, 45, 68]",56451682,Er2B6Rh1
Tm2B6Rh,mp-1208020,0.0,6.38502204,0.0,pf-40869,"{69: 2, 5: 6, 45: 1}","[5, 45, 69]",56451692,Tm2B6Rh1
Lu2B6Rh,mp-1211036,0.0,6.43098689,0.0,pf-29125,"{71: 2, 5: 6, 45: 1}","[5, 45, 71]",56451712,Lu2B6Rh1
Eu3(B3Rh4)2,mp-672322,0.0,5.97516798,0.0,icsd-613863,"{63: 3, 5: 6, 45: 8}","[5, 45, 63]",56458633,Eu3B6Rh8
Cs(BI)6,mp-640353,1.6875999999999998,1.14412692,0.0,icsd-151977,"{55: 1, 5: 6, 53: 6}","[5, 53, 55]",56536551,Cs1B6I6
BaB6,mp-954,0.0,4.20854871,0.0,icsd-194634,"{56: 1, 5: 6}","[5, 56]",56561,Ba1B6
LaB6,mp-2680,0.0,8.81891007,0.0,icsd-194636,"{57: 1, 5: 6}","[5, 57]",56571,La1B6
CeB6,mp-21343,0.0,8.16098084,0.0,icsd-194311,"{58: 1, 5: 6}","[5, 58]",56581,Ce1B6
Ce2(ReB2)3,mp-1190580,0.0,8.37779556,0.0,icsd-612821,"{58: 2, 75: 3, 5: 6}","[5, 58, 75]",56582753,Ce2Re3B6
PrB6,mp-12762,0.0,7.04511457,0.0,icsd-602753,"{59: 1, 5: 6}","[5, 59]",56591,Pr1B6
Pr2(ReB2)3,mp-2933,0.0,6.40394538,0.0,icsd-86366,"{59: 2, 75: 3, 5: 6}","[5, 59, 75]",56592753,Pr2Re3B6
NdB6,mp-1929,0.0,6.98005805,0.0,icsd-614931,"{60: 1, 5: 6}","[5, 60]",56601,Nd1B6
Nd2(ReB2)3,mp-1190986,0.0,6.38490953,0.0,icsd-614953,"{60: 2, 75: 3, 5: 6}","[5, 60, 75]",56602753,Nd2Re3B6
SmB6,mp-6996,0.0,6.83202031,0.0,icsd-615478,"{62: 1, 5: 6}","[5, 62]",56621,Sm1B6
Sm2(ReB2)3,mp-979418,0.0,6.21296578,0.0,icsd-615246,"{62: 2, 75: 3, 5: 6}","[5, 62, 75]",56622753,Sm2Re3B6
EuB6,mp-20874,0.0,5.71145427,0.0,icsd-613840,"{63: 1, 5: 6}","[5, 63]",56631,Eu1B6
Th2Sc(B2C)3,mp-1208224,0.0,7.66929565,0.0,pf-4302,"{90: 2, 21: 1, 5: 6, 6: 3}","[5, 6, 21, 90]",5663211902,Th2Sc1B6C3
GdB6,mp-22266,0.0,6.35612841,0.0,icsd-614323,"{64: 1, 5: 6}","[5, 64]",56641,Gd1B6
Gd2B6Os,mp-1202304,0.0,5.24224493,0.0,icsd-603503,"{64: 2, 5: 6, 76: 1}","[5, 64, 76]",56642761,Gd2B6Os1
Tb2ReB6,mp-1198929,0.0,5.87927185,0.0,icsd-615253,"{65: 2, 75: 1, 5: 6}","[5, 65, 75]",56652751,Tb2Re1B6
Tb2B6Os,mp-1200538,0.0,6.54287987,0.0,icsd-603504,"{65: 2, 5: 6, 76: 1}","[5, 65, 76]",56652761,Tb2B6Os1
Dy2ReB6,mp-1204645,0.0,5.87703918,0.0,icsd-613674,"{66: 2, 75: 1, 5: 6}","[5, 66, 75]",56662751,Dy2Re1B6
Dy2B6Os,mp-1198294,0.0,6.54798169,0.0,icsd-603479,"{66: 2, 5: 6, 76: 1}","[5, 66, 76]",56662761,Dy2B6Os1
Ho2ReB6,mp-1204735,0.0,5.82984179,0.0,icsd-614496,"{67: 2, 75: 1, 5: 6}","[5, 67, 75]",56672751,Ho2Re1B6
Ho2B6Os,mp-1200778,0.0,6.5297809,0.0,icsd-603477,"{67: 2, 5: 6, 76: 1}","[5, 67, 76]",56672761,Ho2B6Os1
Er2ReB6,mp-1201657,0.0,5.87798954,0.0,icsd-613800,"{68: 2, 75: 1, 5: 6}","[5, 68, 75]",56682751,Er2Re1B6
Er2B6Os,mp-1198965,0.0,6.61781275,0.0,icsd-613790,"{68: 2, 5: 6, 76: 1}","[5, 68, 76]",56682761,Er2B6Os1
Tm2ReB6,mp-1195760,0.0,5.84645402,0.0,icsd-615259,"{69: 2, 75: 1, 5: 6}","[5, 69, 75]",56692751,Tm2Re1B6
Tm2B6Os,mp-1203429,0.0,6.60976347,0.0,icsd-603701,"{69: 2, 5: 6, 76: 1}","[5, 69, 76]",56692761,Tm2B6Os1
Lu2ReB6,mp-1201869,0.0,5.81971871,0.0,icsd-614700,"{71: 2, 75: 1, 5: 6}","[5, 71, 75]",56712751,Lu2Re1B6
Lu2B6Os,mp-1199915,0.0,6.68366794,0.0,icsd-603729,"{71: 2, 5: 6, 76: 1}","[5, 71, 76]",56712761,Lu2B6Os1
Na3B6NO13,mp-558548,3.2938,0.4537687,0.0,icsd-97687,"{11: 3, 5: 6, 7: 1, 8: 13}","[5, 7, 8, 11]",5671813113,Na3B6N1O13
Ta5B6,mp-28629,0.0,8.06647133,0.0,icsd-68538,"{73: 5, 5: 6}","[5, 73]",56735,Ta5B6
U2B6W,mp-1203029,0.0,10.4147553,0.0,icsd-615648,"{92: 2, 5: 6, 74: 1}","[5, 74, 92]",56741922,U2B6W1
U2ReB6,mp-1202234,0.0,10.7220846,0.0,icsd-615260,"{92: 2, 75: 1, 5: 6}","[5, 75, 92]",56751922,U2Re1B6
B6O,mp-1346,1.8563999999999998,5.28513093,0.0,icsd-71065,"{5: 6, 8: 1}","[5, 8]",5681,B6O1
K3B6ClO10,mp-1189091,5.3729,-0.17296158,0.0,icsd-262005,"{19: 3, 5: 6, 17: 1, 8: 10}","[5, 8, 17, 19]",56810171193,K3B6Cl1O10
K3B6BrO10,mp-23612,5.212000000000001,-0.08136988,0.0,icsd-250317,"{19: 3, 5: 6, 35: 1, 8: 10}","[5, 8, 19, 35]",56810193351,K3B6Br1O10
Ca(B3O5)2,mp-558358,5.8213,0.37977667,0.0,icsd-161320,"{20: 1, 5: 6, 8: 10}","[5, 8, 20]",56810201,Ca1B6O10
Ca2B6O11,mp-27657,5.639,1.82040674,0.0,icsd-23032,"{20: 2, 5: 6, 8: 11}","[5, 8, 20]",56811202,Ca2B6O11
Sr3B6O11F2,mp-1202821,5.4177,1.23721881,0.0,icsd-262538,"{38: 3, 5: 6, 8: 11, 9: 2}","[5, 8, 9, 38]",5681192383,Sr3B6O11F2
Ba3B6O11F2,mp-1195844,5.2662,1.18792598,0.0,icsd-184715,"{56: 3, 5: 6, 8: 11, 9: 2}","[5, 8, 9, 56]",5681192563,Ba3B6O11F2
Ba2Ca(BO2)6,mp-8271,4.9616,0.58409252,0.0,icsd-30890,"{56: 2, 20: 1, 5: 6, 8: 12}","[5, 8, 20, 56]",56812201562,Ba2Ca1B6O12
Ba2Mn(BO2)6,mp-18990,3.9788000000000006,1.82372392,0.0,icsd-391013,"{56: 2, 25: 1, 5: 6, 8: 12}","[5, 8, 25, 56]",56812251562,Ba2Mn1B6O12
Zn4B6SeO12,mp-14921,1.8571,2.52449699,0.0,icsd-74057,"{30: 4, 5: 6, 34: 1, 8: 12}","[5, 8, 30, 34]",56812304341,Zn4B6Se1O12
Ba2Cd(BO2)6,mp-1190588,4.3316,0.69925647,0.0,icsd-425704,"{56: 2, 48: 1, 5: 6, 8: 12}","[5, 8, 48, 56]",56812481562,Ba2Cd1B6O12
Ba2B6PbO12,mp-1194549,4.233700000000001,1.22392774,0.0,icsd-195637,"{56: 2, 5: 6, 82: 1, 8: 12}","[5, 8, 56, 82]",56812562821,Ba2B6Pb1O12
Na3B6PO13,mp-556801,4.7576,0.58575766,0.0,icsd-416726,"{11: 3, 5: 6, 15: 1, 8: 13}","[5, 8, 11, 15]",56813113151,Na3B6P1O13
Zn4B6O13,mp-4812,3.4134,1.66805371,0.0,icsd-15800,"{30: 4, 5: 6, 8: 13}","[5, 8, 30]",56813304,Zn4B6O13