formula,material_id,band_gap,efermi,energy_above_hull,database_IDs,comp_atoms,sorted_keys_comp_atoms,comp_number,new_formula
B11H10SI,mp-1203795,3.4062,1.89430563,0.0,icsd-250517,"{5: 11, 1: 10, 16: 1, 53: 1}","[1, 5, 16, 53]",110511161531,B11H10S1I1
B6H10N,mp-31064,5.6566,-2.67094677,0.0,icsd-98618,"{5: 6, 1: 10, 7: 1}","[1, 5, 7]",1105671,B6H10N1
B9H11,mp-29654,2.9118,-1.99625916,0.0,icsd-43255,"{5: 9, 1: 11}","[1, 5]",11159,B9H11
Ca(BH)12,mp-1196257,4.8911,2.84280377,0.0,icsd-247353,"{20: 1, 5: 12, 1: 12}","[1, 5, 20]",112512201,Ca1B12H12
Sr(BH)12,mp-1200414,5.893599999999999,3.75991497,0.0,icsd-183721,"{38: 1, 5: 12, 1: 12}","[1, 5, 38]",112512381,Sr1B12H12
Ba(BH)12,mp-1203559,5.8133,-2.5129335,0.0,icsd-183722,"{56: 1, 5: 12, 1: 12}","[1, 5, 56]",112512561,Ba1B12H12
KSr(BH4)3,mp-1195216,5.7155000000000005,2.4802438,0.0,icsd-431110,"{19: 1, 38: 1, 5: 3, 1: 12}","[1, 5, 19, 38]",11253191381,K1Sr1B3H12
RbSr(BH4)3,mp-1194771,5.242800000000001,2.08511861,0.0,icsd-431108,"{37: 1, 38: 1, 5: 3, 1: 12}","[1, 5, 37, 38]",11253371381,Rb1Sr1B3H12
CsSr(BH4)3,mp-1195599,5.3107,2.60162449,0.0,icsd-431109,"{55: 1, 38: 1, 5: 3, 1: 12}","[1, 5, 38, 55]",11253381551,Cs1Sr1B3H12
Y(BH4)3,mp-571369,4.5766,-3.3669731,0.0,icsd-169075,"{39: 1, 5: 3, 1: 12}","[1, 5, 39]",11253391,Y1B3H12
Ca3B4(H4O)3,mp-1182037,4.7904,-0.6903716,0.0,icsd-182497,"{20: 3, 5: 4, 1: 12, 8: 3}","[1, 5, 8, 20]",1125483203,Ca3B4H12O3
B5H12NO12,mp-703444,5.5022,-2.06590704,0.0,icsd-90001,"{5: 5, 1: 12, 7: 1, 8: 12}","[1, 5, 7, 8]",1125571812,B5H12N1O12
Cs3B6H12S4Br,mp-695929,4.9166,-0.2159295,0.0,icsd-69972,"{55: 3, 5: 6, 1: 12, 16: 4, 35: 1}","[1, 5, 16, 35, 55]",11256164351553,Cs3B6H12S4Br1
Cs3B6H12Se4Br,mp-740711,4.4933000000000005,-0.47105265,0.0,icsd-69973,"{55: 3, 5: 6, 1: 12, 34: 4, 35: 1}","[1, 5, 34, 35, 55]",11256344351553,Cs3B6H12Se4Br1
CdB6H12(N2O5)2,mp-1195051,4.3355999999999995,0.51133561,0.0,icsd-429059,"{48: 1, 5: 6, 1: 12, 7: 4, 8: 10}","[1, 5, 7, 8, 48]",1125674810481,Cd1B6H12N4O10
B10H13I,mp-1199051,2.5463,-1.80337041,0.0,icsd-262411,"{5: 10, 1: 13, 53: 1}","[1, 5, 53]",113510531,B10H13I1
Be2BHO4,mp-23883,6.1491,0.38189803,0.0,icsd-34650,"{4: 2, 5: 1, 1: 1, 8: 4}","[1, 4, 5, 8]",11425184,Be2B1H1O4
B10H14S,mp-1199941,2.5518,0.37997286,0.0,icsd-262495,"{5: 10, 1: 14, 16: 1}","[1, 5, 16]",114510161,B10H14S1
Fe3B11HO20,mp-1203485,0.32260000000000044,5.89050369,0.0,icsd-421264,"{26: 3, 5: 11, 1: 1, 8: 20}","[1, 5, 8, 26]",11511820263,Fe3B11H1O20
Ca2BHN2,mp-24266,3.0020000000000007,1.97189858,0.0,icsd-414006,"{20: 2, 5: 1, 1: 1, 7: 2}","[1, 5, 7, 20]",115172202,Ca2B1H1N2
BHS3O11,mp-1200187,5.696299999999999,-1.00909997,0.0,icsd-426422,"{5: 1, 1: 1, 16: 3, 8: 11}","[1, 5, 8, 16]",1151811163,B1H1S3O11
BHO2,mp-1198592,6.2786,-1.41496723,0.0,icsd-183581,"{5: 1, 1: 1, 8: 2}","[1, 5, 8]",115182,B1H1O2
Na2BHO3,mp-556125,3.8105999999999995,0.40732859,0.0,icsd-27211,"{11: 2, 5: 1, 1: 1, 8: 3}","[1, 5, 8, 11]",115183112,Na2B1H1O3
CaBHO3,mp-1192226,4.963699999999999,0.66704906,0.0,icsd-181633,"{20: 1, 5: 1, 1: 1, 8: 3}","[1, 5, 8, 20]",115183201,Ca1B1H1O3
BH(PbO2)2,mp-1105235,3.0854,1.93197363,0.0,icsd-239886,"{5: 1, 1: 1, 82: 2, 8: 4}","[1, 5, 8, 82]",115184822,B1H1Pb2O4
NaInBP2HO9,mp-1198616,4.1928,1.36601454,0.0,icsd-261806,"{11: 1, 49: 1, 5: 1, 15: 2, 1: 1, 8: 9}","[1, 5, 8, 11, 15, 49]",115189111152491,Na1In1B1P2H1O9
KScBP2HO9,mp-23808,4.6379,0.63339015,0.0,icsd-409883,"{19: 1, 21: 1, 5: 1, 15: 2, 1: 1, 8: 9}","[1, 5, 8, 15, 19, 21]",115189152191211,K1Sc1B1P2H1O9
KVBP2HO9,mp-24827,1.7431,3.79036325,0.0,icsd-409957,"{19: 1, 23: 1, 5: 1, 15: 2, 1: 1, 8: 9}","[1, 5, 8, 15, 19, 23]",115189152191231,K1V1B1P2H1O9
KFeBP2HO9,mp-1204854,2.8184,0.37874258,0.0,icsd-422900,"{19: 1, 26: 1, 5: 1, 15: 2, 1: 1, 8: 9}","[1, 5, 8, 15, 19, 26]",115189152191261,K1Fe1B1P2H1O9
KInBP2HO9,mp-1193408,4.1152,1.13343572,0.0,icsd-409583,"{19: 1, 49: 1, 5: 1, 15: 2, 1: 1, 8: 9}","[1, 5, 8, 15, 19, 49]",115189152191491,K1In1B1P2H1O9
RbScBP2HO9,mp-23809,4.806,0.67910777,0.0,icsd-409884,"{37: 1, 21: 1, 5: 1, 15: 2, 1: 1, 8: 9}","[1, 5, 8, 15, 21, 37]",115189152211371,Rb1Sc1B1P2H1O9
RbVBP2HO9,mp-767613,1.7429000000000001,1.59214161,0.0,icsd-409468,"{37: 1, 23: 1, 5: 1, 15: 2, 1: 1, 8: 9}","[1, 5, 8, 15, 23, 37]",115189152231371,Rb1V1B1P2H1O9
RbFeBP2HO9,mp-24648,2.3976,0.51798349,0.0,icsd-410721,"{37: 1, 26: 1, 5: 1, 15: 2, 1: 1, 8: 9}","[1, 5, 8, 15, 26, 37]",115189152261371,Rb1Fe1B1P2H1O9
CsFeBP2HO9,mp-757463,0.9450000000000001,1.42602301,0.0,icsd-409432,"{55: 1, 26: 1, 5: 1, 15: 2, 1: 1, 8: 9}","[1, 5, 8, 15, 26, 55]",115189152261551,Cs1Fe1B1P2H1O9
CsGaBP2HO9,mp-1201408,4.6544,0.63534832,0.0,icsd-409696,"{55: 1, 31: 1, 5: 1, 15: 2, 1: 1, 8: 9}","[1, 5, 8, 15, 31, 55]",115189152311551,Cs1Ga1B1P2H1O9
RbInBP2HO9,mp-766175,3.8236000000000003,1.08413335,0.0,icsd-409599,"{37: 1, 49: 1, 5: 1, 15: 2, 1: 1, 8: 9}","[1, 5, 8, 15, 37, 49]",115189152371491,Rb1In1B1P2H1O9
RbB2P2HO9,mp-758281,5.7824,0.36560564,0.0,icsd-406878,"{37: 1, 5: 2, 15: 2, 1: 1, 8: 9}","[1, 5, 8, 15, 37]",115289152371,Rb1B2P2H1O9
CsB2P2HO9,mp-1198124,5.827,0.30468976,0.0,icsd-406879,"{55: 1, 5: 2, 15: 2, 1: 1, 8: 9}","[1, 5, 8, 15, 55]",115289152551,Cs1B2P2H1O9
PrB2HF10,mp-861500,7.7517,-2.71478032,0.0,icsd-420466,"{59: 1, 5: 2, 1: 1, 9: 10}","[1, 5, 9, 59]",1152910591,Pr1B2H1F10
NdB2HF10,mp-977417,7.554399999999999,-2.82482352,0.0,icsd-420467,"{60: 1, 5: 2, 1: 1, 9: 10}","[1, 5, 9, 60]",1152910601,Nd1B2H1F10
Na2B3HO6,mp-706631,4.6148,0.71616466,0.0,icsd-8223,"{11: 2, 5: 3, 1: 1, 8: 6}","[1, 5, 8, 11]",115386112,Na2B3H1O6
CaB3HO6,mp-1194867,5.8113,1.16723702,0.0,icsd-252381,"{20: 1, 5: 3, 1: 1, 8: 6}","[1, 5, 8, 20]",115386201,Ca1B3H1O6
Sr2B5HO10,mp-1202819,4.7715,0.90534883,0.0,icsd-424086,"{38: 2, 5: 5, 1: 1, 8: 10}","[1, 5, 8, 38]",1155810382,Sr2B5H1O10
Ba2B5HO10,mp-1198110,4.787400000000001,0.7525282,0.0,icsd-424087,"{56: 2, 5: 5, 1: 1, 8: 10}","[1, 5, 8, 56]",1155810562,Ba2B5H1O10
K4Ba2B14H16O33,mp-1199499,4.9133,-0.09115181,0.0,icsd-426108,"{19: 4, 56: 2, 5: 14, 1: 16, 8: 33}","[1, 5, 8, 19, 56]",116514833194562,K4Ba2B14H16O33
NaSc(BH4)4,mp-866649,4.5382,-3.26937812,0.0,icsd-166748,"{11: 1, 21: 1, 5: 4, 1: 16}","[1, 5, 11, 21]",11654111211,Na1Sc1B4H16
KGd(BH4)4,mp-1194808,2.4168,-0.91849426,0.0,icsd-252618,"{19: 1, 64: 1, 5: 4, 1: 16}","[1, 5, 19, 64]",11654191641,K1Gd1B4H16
RbY(BH4)4,mp-1201985,6.1376,1.91585337,0.0,icsd-425544,"{37: 1, 39: 1, 5: 4, 1: 16}","[1, 5, 37, 39]",11654371391,Rb1Y1B4H16
Zr(BH4)4,mp-1191059,5.2943,0.37715433,0.0,icsd-250640,"{40: 1, 5: 4, 1: 16}","[1, 5, 40]",11654401,Zr1B4H16
Hf(BH4)4,mp-28040,5.7195,-4.17570967,0.0,icsd-35379,"{72: 1, 5: 4, 1: 16}","[1, 5, 72]",11654721,Hf1B4H16
U(BH4)4,mp-27350,0.07400000000000007,0.5788275,0.0,icsd-10339,"{92: 1, 5: 4, 1: 16}","[1, 5, 92]",11654921,U1B4H16
Np(BH4)4,mp-505372,0.0,-1.66863117,0.0,icsd-200694,"{93: 1, 5: 4, 1: 16}","[1, 5, 93]",11654931,Np1B4H16
K(B7H6)3,mp-1198890,4.3822,1.98167865,0.0,icsd-173003,"{19: 1, 5: 21, 1: 18}","[1, 5, 19]",118521191,K1B21H18
KCa4B22H18ClO46,mp-722344,5.5100999999999996,0.07435818,0.0,icsd-39637,"{19: 1, 20: 4, 5: 22, 1: 18, 17: 1, 8: 46}","[1, 5, 8, 17, 19, 20]",118522846171191204,K1Ca4B22H18Cl1O46
NaZn2(BH4)5,mp-1201672,6.1594999999999995,-4.61311763,0.0,icsd-169828,"{11: 1, 30: 2, 5: 5, 1: 20}","[1, 5, 11, 30]",12055111302,Na1Zn2B5H20
CuBP4H24C8(SF)4,mp-1195164,3.1191,3.20106299,0.0,icsd-195527,"{29: 1, 5: 1, 15: 4, 1: 24, 6: 8, 16: 4, 9: 4}","[1, 5, 6, 9, 15, 16, 29]",124516894154164291,Cu1B1P4H24C8S4F4
BH2OF3,mp-707009,7.567699999999999,-4.20431548,0.0,icsd-24784,"{5: 1, 1: 2, 8: 1, 9: 3}","[1, 5, 8, 9]",12518193,B1H2O1F3
AgBH2OF4,mp-24058,3.044,-1.38990709,0.0,icsd-402366,"{47: 1, 5: 1, 1: 2, 8: 1, 9: 4}","[1, 5, 8, 9, 47]",12518194471,Ag1B1H2O1F4
KMnBP2H2O9,mp-1197780,4.6073,5.56320623,0.0,icsd-422901,"{19: 1, 25: 1, 5: 1, 15: 2, 1: 2, 8: 9}","[1, 5, 8, 15, 19, 25]",125189152191251,K1Mn1B1P2H2O9
Rb3B2P3H2O13,mp-1199257,5.2981,4.91801183,0.0,icsd-415665,"{37: 3, 5: 2, 15: 3, 1: 2, 8: 13}","[1, 5, 8, 15, 37]",1252813153373,Rb3B2P3H2O13
Na3B3H2O7,mp-720583,4.5439,0.3125207,0.0,icsd-1939,"{11: 3, 5: 3, 1: 2, 8: 7}","[1, 5, 8, 11]",125387113,Na3B3H2O7
CeB4H2ClO8,mp-1203793,0.4502999999999995,3.94966013,0.0,icsd-262373,"{58: 1, 5: 4, 1: 2, 17: 1, 8: 8}","[1, 5, 8, 17, 58]",125488171581,Ce1B4H2Cl1O8
Sr3B6H2O13,mp-1201690,5.3122,6.61917638,0.0,icsd-262541,"{38: 3, 5: 6, 1: 2, 8: 13}","[1, 5, 8, 38]",1256813383,Sr3B6H2O13
Ba3B6H2O13,mp-1199009,5.0891,6.27078581,0.0,icsd-262542,"{56: 3, 5: 6, 1: 2, 8: 13}","[1, 5, 8, 56]",1256813563,Ba3B6H2O13
Ca2B8H2O15,mp-706291,5.576099999999999,0.78525889,0.0,icsd-131,"{20: 2, 5: 8, 1: 2, 8: 15}","[1, 5, 8, 20]",1258815202,Ca2B8H2O15
B2H26C8N20Cl2O,mp-1204048,4.1207,-0.38209211,0.0,icsd-81194,"{5: 2, 1: 26, 6: 8, 7: 20, 17: 2, 8: 1}","[1, 5, 6, 7, 8, 17]",126526872081172,B2H26C8N20Cl2O1
BH3NF3,mp-24160,7.7194,-3.57946278,0.0,icsd-94885,"{5: 1, 1: 3, 7: 1, 9: 3}","[1, 5, 7, 9]",13517193,B1H3N1F3
BH3OF4,mp-696379,7.657299999999999,-3.8748985,0.0,icsd-15591,"{5: 1, 1: 3, 8: 1, 9: 4}","[1, 5, 8, 9]",13518194,B1H3O1F4
B(HO)3,mp-23791,6.0572,-2.79796467,0.0,icsd-61354,"{5: 1, 1: 3, 8: 3}","[1, 5, 8]",135183,B1H3O3
K3CuB2P4H3O17,mp-773133,0.3045,1.14218887,0.0,icsd-408834,"{19: 3, 29: 1, 5: 2, 15: 4, 1: 3, 8: 17}","[1, 5, 8, 15, 19, 29]",1352817154193291,K3Cu1B2P4H3O17
Ba2B2AsH3F18,mp-1198263,5.0476,1.45224726,0.0,icsd-420598,"{56: 2, 5: 2, 33: 1, 1: 3, 9: 18}","[1, 5, 9, 33, 56]",1352918331562,Ba2B2As1H3F18
CaB3H3O7,mp-722262,5.7435,0.7302591,0.0,icsd-39844,"{20: 1, 5: 3, 1: 3, 8: 7}","[1, 5, 8, 20]",135387201,Ca1B3H3O7
BaGaB4H3O10,mp-1194652,4.976,-0.25867752,0.0,icsd-427785,"{56: 1, 31: 1, 5: 4, 1: 3, 8: 10}","[1, 5, 8, 31, 56]",1354810311561,Ba1Ga1B4H3O10
K4B10H4O19,mp-1197401,5.1432,-0.39851045,0.0,icsd-170594,"{19: 4, 5: 10, 1: 4, 8: 19}","[1, 5, 8, 19]",14510819194,K4B10H4O19
NaBH4,mp-38725,6.3086,-2.36026639,0.0,icsd-181024,"{11: 1, 5: 1, 1: 4}","[1, 5, 11]",1451111,Na1B1H4
KBH4,mp-37722,6.0959,-3.31419747,0.0,icsd-160985,"{19: 1, 5: 1, 1: 4}","[1, 5, 19]",1451191,K1B1H4
BPH4NO4F,mp-1195775,5.8383,-0.53331022,0.0,icsd-170949,"{5: 1, 15: 1, 1: 4, 7: 1, 8: 4, 9: 1}","[1, 5, 7, 8, 9, 15]",1451718491151,B1P1H4N1O4F1
ZnBP2H4NO8,mp-24657,4.8437,0.092167,0.0,icsd-410872,"{30: 1, 5: 1, 15: 2, 1: 4, 7: 1, 8: 8}","[1, 5, 7, 8, 15, 30]",14517188152301,Zn1B1P2H4N1O8
BH4NF4,mp-720391,7.481199999999999,-3.53165251,0.0,icsd-423912,"{5: 1, 1: 4, 7: 1, 9: 4}","[1, 5, 7, 9]",14517194,B1H4N1F4
BH4O2F3,mp-696656,6.8268,-3.2091329,0.0,icsd-26551,"{5: 1, 1: 4, 8: 2, 9: 3}","[1, 5, 8, 9]",14518293,B1H4O2F3
B3H4NO5,mp-1200137,5.5239,6.20095286,0.0,icsd-427585,"{5: 3, 1: 4, 7: 1, 8: 5}","[1, 5, 7, 8]",14537185,B3H4N1O5
NaB3H4O7,mp-720642,5.3518,-0.51938692,0.0,icsd-4219,"{11: 1, 5: 3, 1: 4, 8: 7}","[1, 5, 8, 11]",145387111,Na1B3H4O7
Na3B3(HO2)4,mp-1203588,4.7627999999999995,0.04351065,0.0,icsd-260879,"{11: 3, 5: 3, 1: 4, 8: 8}","[1, 5, 8, 11]",145388113,Na3B3H4O8
Ca2B3H4ClO8,mp-1204342,5.5358,6.06587917,0.0,icsd-200074,"{20: 2, 5: 3, 1: 4, 17: 1, 8: 8}","[1, 5, 8, 17, 20]",145388171202,Ca2B3H4Cl1O8
B5H4NO8,mp-1196660,5.7298,-0.90785593,0.0,icsd-180583,"{5: 5, 1: 4, 7: 1, 8: 8}","[1, 5, 7, 8]",14557188,B5H4N1O8
NaB5(H2O5)2,mp-721294,5.5723,-1.62250221,0.0,icsd-1386,"{11: 1, 5: 5, 1: 4, 8: 10}","[1, 5, 8, 11]",1455810111,Na1B5H4O10
KB6P(H2O7)2,mp-758840,5.8809000000000005,4.82134234,0.0,icsd-410777,"{19: 1, 5: 6, 15: 1, 1: 4, 8: 14}","[1, 5, 8, 15, 19]",1456814151191,K1B6P1H4O14
CaB8H4O15,mp-23701,5.6011,-0.55559444,0.0,icsd-250323,"{20: 1, 5: 8, 1: 4, 8: 15}","[1, 5, 8, 20]",1458815201,Ca1B8H4O15
BaB8H4O15,mp-1202880,5.6377,5.50772785,0.0,icsd-421417,"{56: 1, 5: 8, 1: 4, 8: 15}","[1, 5, 8, 56]",1458815561,Ba1B8H4O15
B8H4PbO15,mp-1200630,4.763299999999999,4.90457742,0.0,icsd-391339,"{5: 8, 1: 4, 82: 1, 8: 15}","[1, 5, 8, 82]",1458815821,B8H4Pb1O15
VBP2H5NO9,mp-24710,1.7666000000000002,1.64962631,0.0,icsd-411643,"{23: 1, 5: 1, 15: 2, 1: 5, 7: 1, 8: 9}","[1, 5, 7, 8, 15, 23]",15517189152231,V1B1P2H5N1O9
InBP2H5NO9,mp-752709,4.0764000000000005,1.08561608,0.0,icsd-409584,"{49: 1, 5: 1, 15: 2, 1: 5, 7: 1, 8: 9}","[1, 5, 7, 8, 15, 49]",15517189152491,In1B1P2H5N1O9
BH5(OF2)2,mp-1196968,7.263999999999999,-3.65475017,0.0,icsd-15592,"{5: 1, 1: 5, 8: 2, 9: 4}","[1, 5, 8, 9]",15518294,B1H5O2F4
CsB2H5O6,mp-863006,5.0602,-0.94930926,0.0,icsd-50652,"{55: 1, 5: 2, 1: 5, 8: 6}","[1, 5, 8, 55]",155286551,Cs1B2H5O6
B5H5CI,mp-1202707,4.2014,-1.67538265,0.0,icsd-171164,"{5: 5, 1: 5, 6: 1, 53: 1}","[1, 5, 6, 53]",155561531,B5H5C1I1
LaB5H5NO14,mp-1202407,3.4857,0.72028526,0.0,icsd-189521,"{57: 1, 5: 5, 1: 5, 7: 1, 8: 14}","[1, 5, 7, 8, 57]",155571814571,La1B5H5N1O14
Rb2B7H5O14,mp-1197195,5.1122,-0.96087815,0.0,icsd-171351,"{37: 2, 5: 7, 1: 5, 8: 14}","[1, 5, 8, 37]",1557814372,Rb2B7H5O14
K2B10H6O19,mp-1205077,5.7646,4.56019988,0.0,icsd-261898,"{19: 2, 5: 10, 1: 6, 8: 19}","[1, 5, 8, 19]",16510819192,K2B10H6O19
Rb2B10H6O19,mp-698164,5.7894000000000005,-1.09423224,0.0,icsd-99707,"{37: 2, 5: 10, 1: 6, 8: 19}","[1, 5, 8, 37]",16510819372,Rb2B10H6O19
AgB11H6CBr6,mp-703539,3.2973,-0.75232231,0.0,icsd-84105,"{47: 1, 5: 11, 1: 6, 6: 1, 35: 6}","[1, 5, 6, 35, 47]",1651161356471,Ag1B11H6C1Br6
BH6CN3F4,mp-862539,5.6634,-1.40571617,0.0,icsd-202434,"{5: 1, 1: 6, 6: 1, 7: 3, 9: 4}","[1, 5, 6, 7, 9]",1651617394,B1H6C1N3F4
Ba11B26P2(H3O29)2,mp-1195112,4.487,1.46209596,0.0,icsd-252577,"{56: 11, 5: 26, 15: 2, 1: 6, 8: 58}","[1, 5, 8, 15, 56]",165268581525611,Ba11B26P2H6O58
B5H6Br,mp-30977,3.0316,-2.1169162,0.0,icsd-2303,"{5: 5, 1: 6, 35: 1}","[1, 5, 35]",1655351,B5H6Br1
Na(BH)6,mp-978278,5.6439,-1.86260873,0.0,icsd-164649,"{11: 1, 5: 6, 1: 6}","[1, 5, 11]",1656111,Na1B6H6
K(BH)6,mp-24239,5.5283999999999995,-2.52744351,0.0,icsd-36148,"{19: 1, 5: 6, 1: 6}","[1, 5, 19]",1656191,K1B6H6
Rb(BH)6,mp-24123,5.5367,-2.51568475,0.0,icsd-98617,"{37: 1, 5: 6, 1: 6}","[1, 5, 37]",1656371,Rb1B6H6
Cs(BH)6,mp-24136,5.3831,-2.57009407,0.0,icsd-423177,"{55: 1, 5: 6, 1: 6}","[1, 5, 55]",1656551,Cs1B6H6
Tl(BH)6,mp-23691,4.5268999999999995,-1.30079993,0.0,icsd-422433,"{81: 1, 5: 6, 1: 6}","[1, 5, 81]",1656811,Tl1B6H6
SmB9(HO3)6,mp-1201785,5.2966,0.37712173,0.0,icsd-262442,"{62: 1, 5: 9, 1: 6, 8: 18}","[1, 5, 8, 62]",1659818621,Sm1B9H6O18
SrCaB11H7O22,mp-1208782,5.8782,5.81215786,0.0,pf-18572,"{38: 1, 20: 1, 5: 11, 1: 7, 8: 22}","[1, 5, 8, 20, 38]",17511822201381,Sr1Ca1B11H7O22
Ba2B11H7O22,mp-1196038,5.657,5.30426811,0.0,icsd-427176,"{56: 2, 5: 11, 1: 7, 8: 22}","[1, 5, 8, 56]",17511822562,Ba2B11H7O22
B5H7,mp-706630,3.3929,-2.32359062,0.0,icsd-9152,"{5: 5, 1: 7}","[1, 5]",1755,B5H7
Be(BH4)2,mp-27344,6.190300000000001,-3.81718603,0.0,icsd-161366,"{4: 1, 5: 2, 1: 8}","[1, 4, 5]",184152,Be1B2H8
Ca(BH4)2,mp-1190619,4.9736,-2.80545374,0.0,icsd-164182,"{20: 1, 5: 2, 1: 8}","[1, 5, 20]",1852201,Ca1B2H8
Zn(BH4)2,mp-1191586,4.6445,-4.55835695,0.0,icsd-188395,"{30: 1, 5: 2, 1: 8}","[1, 5, 30]",1852301,Zn1B2H8
Cd(BH4)2,mp-1190754,3.9565,0.78256034,0.0,icsd-262600,"{48: 1, 5: 2, 1: 8}","[1, 5, 48]",1852481,Cd1B2H8
CsV3B2P4(H4O11)2,mp-1200471,0.0,3.04138735,0.0,icsd-411097,"{55: 1, 23: 3, 5: 2, 15: 4, 1: 8, 8: 22}","[1, 5, 8, 15, 23, 55]",1852822154233551,Cs1V3B2P4H8O22
K2B4H8O11,mp-721901,5.2011,-1.32333517,0.0,icsd-34648,"{19: 2, 5: 4, 1: 8, 8: 11}","[1, 5, 8, 19]",1854811192,K2B4H8O11
KB5(H2O3)4,mp-706621,5.635,-2.04999211,0.0,icsd-6292,"{19: 1, 5: 5, 1: 8, 8: 12}","[1, 5, 8, 19]",1855812191,K1B5H8O12
CsB5(H2O3)4,mp-23742,5.6249,-1.73911712,0.0,icsd-29438,"{55: 1, 5: 5, 1: 8, 8: 12}","[1, 5, 8, 55]",1855812551,Cs1B5H8O12
SmB7(HO2)8,mp-1199202,5.7436,5.29819972,0.0,icsd-262440,"{62: 1, 5: 7, 1: 8, 8: 16}","[1, 5, 8, 62]",1857816621,Sm1B7H8O16
Sc2BeB2Ir5,mp-1208984,0.0,8.04843862,0.0,pf-34017,"{21: 2, 4: 1, 5: 2, 77: 5}","[4, 5, 21, 77]",4152212775,Sc2Be1B2Ir5
Na2BeB2O5,mp-16737,4.8657,0.3180331,0.0,icsd-249341,"{11: 2, 4: 1, 5: 2, 8: 5}","[4, 5, 8, 11]",415285112,Na2Be1B2O5
SrBeB2O5,mp-1020654,5.3673,1.83052516,0.0,icsd-191121,"{38: 1, 4: 1, 5: 2, 8: 5}","[4, 5, 8, 38]",415285381,Sr1Be1B2O5
Sr3BeB6O13,mp-1020637,4.7944,1.65213127,0.0,icsd-251011,"{38: 3, 4: 1, 5: 6, 8: 13}","[4, 5, 8, 38]",4156813383,Sr3Be1B6O13
Be2BO3F,mp-554023,6.462899999999999,-0.8618101,0.0,icsd-56847,"{4: 2, 5: 1, 8: 3, 9: 1}","[4, 5, 8, 9]",42518391,Be2B1O3F1
KBe2BO3F2,mp-6870,6.0524000000000004,-1.45261855,0.0,icsd-77277,"{19: 1, 4: 2, 5: 1, 8: 3, 9: 2}","[4, 5, 8, 9, 19]",42518392191,K1Be2B1O3F2
CsBe2BO3F2,mp-553342,5.8834,-0.71730473,0.0,icsd-247622,"{55: 1, 4: 2, 5: 1, 8: 3, 9: 2}","[4, 5, 8, 9, 55]",42518392551,Cs1Be2B1O3F2
BaBe2(BO3)2,mp-555070,5.3821,1.27251551,0.0,icsd-67975,"{56: 1, 4: 2, 5: 2, 8: 6}","[4, 5, 8, 56]",425286561,Ba1Be2B2O6
YBe2B5O11,mp-1020740,4.9403,1.01327099,0.0,icsd-194046,"{39: 1, 4: 2, 5: 5, 8: 11}","[4, 5, 8, 39]",4255811391,Y1Be2B5O11
GdBe2B5O11,mp-1195691,0.31020000000000003,1.30534746,0.0,icsd-194045,"{64: 1, 4: 2, 5: 5, 8: 11}","[4, 5, 8, 64]",4255811641,Gd1Be2B5O11
Be4B,mp-27757,0.0,5.44176915,0.0,icsd-25535,"{4: 4, 5: 1}","[4, 5]",4451,Be4B1
RbBe4(BO3)3,mp-556393,5.1736,0.2634471,0.0,icsd-171666,"{37: 1, 4: 4, 5: 3, 8: 9}","[4, 5, 8, 37]",445389371,Rb1Be4B3O9
CsBe4(BO3)3,mp-1019718,4.9398,0.6731749,0.0,icsd-190738,"{55: 1, 4: 4, 5: 3, 8: 9}","[4, 5, 8, 55]",445389551,Cs1Be4B3O9
B,mp-160,1.4333999999999998,6.15041714,0.0,icsd-108026,{5: 1},[5],51,B1
Th2FeB10,mp-21902,0.0,8.06567571,0.0,icsd-78821,"{90: 2, 26: 1, 5: 10}","[5, 26, 90]",510261902,Th2Fe1B10
Th2CoB10,mp-22548,0.0,8.32055126,0.0,icsd-78822,"{90: 2, 27: 1, 5: 10}","[5, 27, 90]",510271902,Th2Co1B10
Sr5(B5Rh7)2,mp-28706,0.0,3.87782115,0.0,icsd-66772,"{38: 5, 5: 10, 45: 14}","[5, 38, 45]",5103854514,Sr5B10Rh14
Cs2Na2B10O17,mp-559557,4.7124999999999995,0.39384728,0.0,icsd-81477,"{55: 2, 11: 2, 5: 10, 8: 17}","[5, 8, 11, 55]",510817112552,Cs2Na2B10O17
Na2Tl2B10O17,mp-554657,4.1036,0.58967095,0.0,icsd-99050,"{11: 2, 81: 2, 5: 10, 8: 17}","[5, 8, 11, 81]",510817112812,Na2Tl2B10O17
Cs2K2B10O17,mp-1200330,4.6216,0.05848816,0.0,icsd-81478,"{55: 2, 19: 2, 5: 10, 8: 17}","[5, 8, 19, 55]",510817192552,Cs2K2B10O17
CaLa2B10O19,mp-560622,4.3132,2.31328617,0.0,icsd-92866,"{20: 1, 57: 2, 5: 10, 8: 19}","[5, 8, 20, 57]",510819201572,Ca1La2B10O19
B10(Pb2O7)3,mp-27184,3.259,2.79441138,0.0,icsd-2641,"{5: 10, 82: 6, 8: 21}","[5, 8, 82]",510821826,B10Pb6O21
K2NaBP2,mp-567836,1.771,1.29638717,0.0,icsd-300133,"{19: 2, 11: 1, 5: 1, 15: 2}","[5, 11, 15, 19]",51111152192,K2Na1B1P2
NaBPt3,mp-28614,0.0,5.63597083,0.0,icsd-68092,"{11: 1, 5: 1, 78: 3}","[5, 11, 78]",51111783,Na1B1Pt3
Na3BS3,mp-29976,2.5824000000000003,1.38134516,0.0,icsd-411608,"{11: 3, 5: 1, 16: 3}","[5, 11, 16]",51113163,Na3B1S3
Na8Zr6BBr20,mp-1210285,0.0,2.79385765,0.0,pf-866,"{11: 8, 40: 6, 5: 1, 35: 20}","[5, 11, 35, 40]",511183520406,Na8Zr6B1Br20
BP,mp-1479,1.2434999999999992,7.5307309,0.0,icsd-181291,"{5: 1, 15: 1}","[5, 15]",51151,B1P1
BPS4,mp-27724,2.2760000000000002,0.37956446,0.0,icsd-24618,"{5: 1, 15: 1, 16: 4}","[5, 15, 16]",51151164,B1P1S4
BP(IBr)3,mp-567433,1.9337,-0.3359375,0.0,icsd-411438,"{5: 1, 15: 1, 53: 3, 35: 3}","[5, 15, 35, 53]",51151353533,B1P1I3Br3
BPBr6,mp-1201622,2.7247000000000003,1.21143676,0.0,icsd-411194,"{5: 1, 15: 1, 35: 6}","[5, 15, 35]",51151356,B1P1Br6
K3BP2,mp-9664,1.6658,1.10026404,0.0,icsd-300104,"{19: 3, 5: 1, 15: 2}","[5, 15, 19]",51152193,K3B1P2
Rb3BP2,mp-9720,1.5859,1.14228097,0.0,icsd-402084,"{37: 3, 5: 1, 15: 2}","[5, 15, 37]",51152373,Rb3B1P2
Cs3BP2,mp-9675,1.6955000000000002,1.83936388,0.0,icsd-300123,"{55: 3, 5: 1, 15: 2}","[5, 15, 55]",51152553,Cs3B1P2
BSBr,mp-27245,3.5168,-2.02877249,0.0,icsd-30378,"{5: 1, 16: 1, 35: 1}","[5, 16, 35]",51161351,B1S1Br1
BS2,mp-540668,2.4370000000000003,0.28580246,0.0,icsd-15267,"{5: 1, 16: 2}","[5, 16]",51162,B1S2
KBS2,mp-15012,2.7753,0.65140855,0.0,icsd-79614,"{19: 1, 5: 1, 16: 2}","[5, 16, 19]",51162191,K1B1S2
CuBS2,mp-12954,1.7424999999999997,6.42471159,0.0,icsd-156413,"{29: 1, 5: 1, 16: 2}","[5, 16, 29]",51162291,Cu1B1S2
RbBS2,mp-15013,2.8318,0.42441605,0.0,icsd-79615,"{37: 1, 5: 1, 16: 2}","[5, 16, 37]",51162371,Rb1B1S2