formula,material_id,band_gap,efermi,energy_above_hull,database_IDs,comp_atoms,sorted_keys_comp_atoms,comp_number,new_formula
Ce7C3I10,mp-568922,0.0,6.22481244,0.0,icsd-416015,"{58: 7, 6: 3, 53: 10}","[6, 53, 58]",635310587,Ce7C3I10
Pr7C3I10,mp-645425,0.012199999999999989,4.4043765,0.0,icsd-409907,"{59: 7, 6: 3, 53: 10}","[6, 53, 59]",635310597,Pr7C3I10
La2C3,mp-1184,0.0,8.63082749,0.0,icsd-26588,"{57: 2, 6: 3}","[6, 57]",63572,La2C3
Ce2C3,mp-20181,0.0,8.34326891,0.0,icsd-617322,"{58: 2, 6: 3}","[6, 58]",63582,Ce2C3
Pr2C3,mp-683,0.0,5.22490877,0.0,icsd-2444,"{59: 2, 6: 3}","[6, 59]",63592,Pr2C3
Nd2C3,mp-1800,0.0,5.16620061,0.0,icsd-2446,"{60: 2, 6: 3}","[6, 60]",63602,Nd2C3
Sm2C3,mp-569335,0.0,4.94781057,0.0,icsd-109322,"{62: 2, 6: 3}","[6, 62]",63622,Sm2C3
Gd2C3,mp-1189998,0.0,4.92997471,0.0,icsd-602774,"{64: 2, 6: 3}","[6, 64]",63642,Gd2C3
Sr3Co(CN)3,mp-862670,1.1035,3.11720929,0.0,icsd-423302,"{38: 3, 27: 1, 6: 3, 7: 3}","[6, 7, 27, 38]",6373271383,Sr3Co1C3N3
Ba3Rh(CN)3,mp-1105268,0.6265999999999998,3.2469344,0.0,icsd-429226,"{56: 3, 45: 1, 6: 3, 7: 3}","[6, 7, 45, 56]",6373451563,Ba3Rh1C3N3
Ba3Ir(CN)3,mp-1106080,0.6643000000000003,3.26985071,0.0,icsd-424762,"{56: 3, 77: 1, 6: 3, 7: 3}","[6, 7, 56, 77]",6373563771,Ba3Ir1C3N3
U2Re2C3,mp-1025230,0.0,10.4491844,0.0,pf-9377,"{92: 2, 75: 2, 6: 3}","[6, 75, 92]",63752922,U2Re2C3
Ce2(CN2)3,mp-1213867,0.0,5.72838025,0.0,pf-39961,"{58: 2, 6: 3, 7: 6}","[6, 7, 58]",6376582,Ce2C3N6
Sm2(CN2)3,mp-568498,2.4814,2.1033347,0.0,icsd-240312,"{62: 2, 6: 3, 7: 6}","[6, 7, 62]",6376622,Sm2C3N6
Tm2(CN2)3,mp-1205483,2.4882999999999997,2.46691337,0.0,pf-29549,"{69: 2, 6: 3, 7: 6}","[6, 7, 69]",6376692,Tm2C3N6
Na4UC3O11,mp-6046,2.1523000000000003,0.41399235,0.0,icsd-280581,"{11: 4, 92: 1, 6: 3, 8: 11}","[6, 8, 11, 92]",63811114921,Na4U1C3O11
Rb4UC3O11,mp-1209486,2.1677999999999997,-0.3646194,0.0,pf-23944,"{37: 4, 92: 1, 6: 3, 8: 11}","[6, 8, 37, 92]",63811374921,Rb4U1C3O11
Cs4UC3O11,mp-573096,2.0837000000000003,0.1634634,0.0,icsd-151876,"{55: 4, 92: 1, 6: 3, 8: 11}","[6, 8, 55, 92]",63811554921,Cs4U1C3O11
UTl4C3O11,mp-18136,1.7982999999999998,1.52239999,0.0,icsd-61345,"{92: 1, 81: 4, 6: 3, 8: 11}","[6, 8, 81, 92]",63811814921,U1Tl4C3O11
CsOsC3(ClO)3,mp-1196677,3.6727000000000003,2.56269353,0.0,icsd-39588,"{55: 1, 76: 1, 6: 3, 17: 3, 8: 3}","[6, 8, 17, 55, 76]",6383173551761,Cs1Os1C3Cl3O3
OsC3I2O3,mp-616196,1.7955999999999999,1.01194545,0.0,icsd-68901,"{76: 1, 6: 3, 53: 2, 8: 3}","[6, 8, 53, 76]",6383532761,Os1C3I2O3
Na2Ca2(CO3)3,mp-557391,4.7886999999999995,0.97599261,0.0,icsd-16495,"{11: 2, 20: 2, 6: 3, 8: 9}","[6, 8, 11, 20]",6389112202,Na2Ca2C3O9
Na3Y(CO3)3,mp-1194479,5.0193,0.65951432,0.0,icsd-237769,"{11: 3, 39: 1, 6: 3, 8: 9}","[6, 8, 11, 39]",6389113391,Na3Y1C3O9
Na3Eu(CO3)3,mp-555099,0.0,0.30335018,0.0,icsd-84881,"{11: 3, 63: 1, 6: 3, 8: 9}","[6, 8, 11, 63]",6389113631,Na3Eu1C3O9
Na3Gd(CO3)3,mp-1194955,0.0,0.29492036,0.0,icsd-237768,"{11: 3, 64: 1, 6: 3, 8: 9}","[6, 8, 11, 64]",6389113641,Na3Gd1C3O9
Cs2Ba2(CO3)3,mp-558539,4.3381,0.77750475,0.0,icsd-73170,"{55: 2, 56: 2, 6: 3, 8: 9}","[6, 8, 55, 56]",6389552562,Cs2Ba2C3O9
Na4LuC3O9F,mp-1194756,4.533600000000001,0.51872933,0.0,icsd-237916,"{11: 4, 71: 1, 6: 3, 8: 9, 9: 1}","[6, 8, 9, 11, 71]",638991114711,Na4Lu1C3O9F1
Ba2LaC3O9F,mp-18111,3.9314,2.06882873,0.0,icsd-250059,"{56: 2, 57: 1, 6: 3, 8: 9, 9: 1}","[6, 8, 9, 56, 57]",638991562571,Ba2La1C3O9F1
Ba2CeC3O9F,mp-6850,0.0766,4.69284296,0.0,icsd-85572,"{56: 2, 58: 1, 6: 3, 8: 9, 9: 1}","[6, 8, 9, 56, 58]",638991562581,Ba2Ce1C3O9F1
Th2C3,mp-1188514,0.0,8.0943384,0.0,icsd-618903,"{90: 2, 6: 3}","[6, 90]",63902,Th2C3
U2C3,mp-2625,0.0,11.56936032,0.0,icsd-619021,"{92: 2, 6: 3}","[6, 92]",63922,U2C3
Cs3Tb10C4Cl21,mp-571397,0.6788000000000003,2.16326039,0.0,icsd-300283,"{55: 3, 65: 10, 6: 4, 17: 21}","[6, 17, 55, 65]",6417215536510,Cs3Tb10C4Cl21
Sc3C4,mp-28733,0.0,5.48337016,0.0,icsd-71145,"{21: 3, 6: 4}","[6, 21]",64213,Sc3C4
Sc3FeC4,mp-3155,0.0,6.08251693,0.0,icsd-72863,"{21: 3, 26: 1, 6: 4}","[6, 21, 26]",64213261,Sc3Fe1C4
Sc3CoC4,mp-5075,0.0,6.17619517,0.0,icsd-236393,"{21: 3, 27: 1, 6: 4}","[6, 21, 27]",64213271,Sc3Co1C4
U(CrC)4,mp-2971,0.0,8.79325192,0.0,icsd-60822,"{92: 1, 24: 4, 6: 4}","[6, 24, 92]",64244921,U1Cr4C4
Y2FeC4,mp-1103537,0.0,5.03106683,0.0,icsd-617900,"{39: 2, 26: 1, 6: 4}","[6, 26, 39]",64261392,Y2Fe1C4
Tb2FeC4,mp-1104152,0.0,4.96374693,0.0,icsd-617861,"{65: 2, 26: 1, 6: 4}","[6, 26, 65]",64261652,Tb2Fe1C4
Dy2FeC4,mp-1104250,0.0,4.97777,0.0,icsd-617590,"{66: 2, 26: 1, 6: 4}","[6, 26, 66]",64261662,Dy2Fe1C4
Ho2FeC4,mp-1103948,0.0,4.9472579,0.0,icsd-617747,"{67: 2, 26: 1, 6: 4}","[6, 26, 67]",64261672,Ho2Fe1C4
Er2FeC4,mp-9977,0.0,4.94024147,0.0,icsd-42968,"{68: 2, 26: 1, 6: 4}","[6, 26, 68]",64261682,Er2Fe1C4
Tm2FeC4,mp-7085,0.0,4.9377911,0.0,icsd-40758,"{69: 2, 26: 1, 6: 4}","[6, 26, 69]",64261692,Tm2Fe1C4
Lu2FeC4,mp-1104515,0.0,4.9431426,0.0,icsd-617765,"{71: 2, 26: 1, 6: 4}","[6, 26, 71]",64261712,Lu2Fe1C4
Pr10C4Br15,mp-862839,0.0,3.47883495,0.0,icsd-420332,"{59: 10, 6: 4, 35: 15}","[6, 35, 59]",6435155910,Pr10C4Br15
Rb2Tb10C4Br19,mp-569962,0.1554000000000002,2.46764481,0.0,icsd-405258,"{37: 2, 65: 10, 6: 4, 35: 19}","[6, 35, 37, 65]",6435193726510,Rb2Tb10C4Br19
Ce4C4Br3,mp-569330,0.0,5.92961965,0.0,icsd-410857,"{58: 4, 6: 4, 35: 3}","[6, 35, 58]",64353584,Ce4C4Br3
CsY10(C2I9)2,mp-669309,0.0,3.84006293,0.0,icsd-402129,"{55: 1, 39: 10, 6: 4, 53: 18}","[6, 39, 53, 55]",6439105318551,Cs1Y10C4I18
Y3C4,mp-1200613,0.0,4.57013379,0.0,icsd-619109,"{39: 3, 6: 4}","[6, 39]",64393,Y3C4
La10C4I15,mp-567775,0.0,5.85896706,0.0,icsd-415094,"{57: 10, 6: 4, 53: 15}","[6, 53, 57]",6453155710,La10C4I15
CsEr10(C2I9)2,mp-1196026,0.2905000000000002,3.60117355,0.0,icsd-72762,"{55: 1, 68: 10, 6: 4, 53: 18}","[6, 53, 55, 68]",6453185516810,Cs1Er10C4I18
Dy3C4,mp-1213387,0.0,4.43242733,0.0,pf-8380,"{66: 3, 6: 4}","[6, 66]",64663,Dy3C4
Ho3C4,mp-1202754,0.0,4.33635642,0.0,icsd-618074,"{67: 3, 6: 4}","[6, 67]",64673,Ho3C4
Er3C4,mp-1203719,0.0,4.36326579,0.0,icsd-617626,"{68: 3, 6: 4}","[6, 68]",64683,Er3C4
Tm3C4,mp-1205180,0.0,4.34193669,0.0,icsd-618978,"{69: 3, 6: 4}","[6, 69]",64693,Tm3C4
Lu3C4,mp-1203767,0.0,4.35328208,0.0,icsd-618216,"{71: 3, 6: 4}","[6, 71]",64713,Lu3C4
Cs4Re6C4S9N4,mp-683929,1.4641000000000002,1.89888528,0.0,icsd-416657,"{55: 4, 75: 6, 6: 4, 16: 9, 7: 4}","[6, 7, 16, 55, 75]",6474169554756,Cs4Re6C4S9N4
Na5Y(CO3)4,mp-560919,4.2043,0.73271922,0.0,icsd-96135,"{11: 5, 39: 1, 6: 4, 8: 12}","[6, 8, 11, 39]",64812115391,Na5Y1C4O12
BaNaCe2C4O12F,mp-542264,0.24960000000000004,5.16896816,0.0,icsd-77499,"{56: 1, 11: 1, 58: 2, 6: 4, 8: 12, 9: 1}","[6, 8, 9, 11, 56, 58]",6481291111561582,Ba1Na1Ce2C4O12F1
Na4Zr2Ti(CO4)4,mp-560843,3.1442000000000005,1.1711949,0.0,icsd-82488,"{11: 4, 40: 2, 22: 1, 6: 4, 8: 16}","[6, 8, 11, 22, 40]",64816114221402,Na4Zr2Ti1C4O16
Na6Fe2C4SO16,mp-21590,0.0,3.33144567,0.0,icsd-20169,"{11: 6, 26: 2, 6: 4, 16: 1, 8: 16}","[6, 8, 11, 16, 26]",64816116161262,Na6Fe2C4S1O16
Ti8C5,mp-27919,0.0,6.20072789,0.0,icsd-20822,"{22: 8, 6: 5}","[6, 22]",65228,Ti8C5
V6C5,mp-28731,0.0,7.44154974,0.0,icsd-654841,"{23: 6, 6: 5}","[6, 23]",65236,V6C5
Y4C5,mp-9459,0.0,4.28801012,0.0,icsd-84869,"{39: 4, 6: 5}","[6, 39]",65394,Y4C5
Nb6C5,mp-2760,0.0,6.95372752,0.0,icsd-167353,"{41: 6, 6: 5}","[6, 41]",65416,Nb6C5
Tb4C5,mp-15237,0.0,4.18825079,0.0,icsd-84870,"{65: 4, 6: 5}","[6, 65]",65654,Tb4C5
Dy4C5,mp-1212812,0.0,4.21855848,0.0,pf-10292,"{66: 4, 6: 5}","[6, 66]",65664,Dy4C5
Ho4C5,mp-15238,0.0,4.07219986,0.0,icsd-84871,"{67: 4, 6: 5}","[6, 67]",65674,Ho4C5
Ba3Na3(CO3)5,mp-1214668,0.007099999999999995,0.55084542,0.0,pf-19297,"{56: 3, 11: 3, 6: 5, 8: 15}","[6, 8, 11, 56]",65815113563,Ba3Na3C5O15
Ba3La2C5O15F2,mp-581361,3.9044,2.41909019,0.0,icsd-72445,"{56: 3, 57: 2, 6: 5, 8: 15, 9: 2}","[6, 8, 9, 56, 57]",6581592563572,Ba3La2C5O15F2
Gd5(C2Cl)3,mp-866789,0.0,4.18506887,0.0,icsd-420618,"{64: 5, 6: 6, 17: 3}","[6, 17, 64]",66173645,Gd5C6Cl3
Cr21(MoC3)2,mp-641573,0.0,7.78723334,0.0,icsd-191596,"{24: 21, 42: 2, 6: 6}","[6, 24, 42]",662421422,Cr21Mo2C6
Cr21(WC3)2,mp-641575,0.0,7.62595406,0.0,icsd-191599,"{24: 21, 74: 2, 6: 6}","[6, 24, 74]",662421742,Cr21W2C6
Cr23C6,mp-723,0.0,7.66645436,0.0,icsd-2837,"{24: 23, 6: 6}","[6, 24]",662423,Cr23C6
Mn23C6,mp-542830,0.0,7.19436946,0.0,icsd-154720,"{25: 23, 6: 6}","[6, 25]",662523,Mn23C6
Gd3(MnC3)2,mp-28826,0.0,5.28689164,0.0,icsd-73213,"{64: 3, 25: 2, 6: 6}","[6, 25, 64]",66252643,Gd3Mn2C6
Tb3(MnC3)2,mp-28827,0.0,5.49533953,0.0,icsd-73214,"{65: 3, 25: 2, 6: 6}","[6, 25, 65]",66252653,Tb3Mn2C6
Ce5(C2Br)3,mp-1193043,0.0,6.06161336,0.0,icsd-420617,"{58: 5, 6: 6, 35: 3}","[6, 35, 58]",66353585,Ce5C6Br3
Pr5(C2Br)3,mp-1209658,0.0,3.95492887,0.0,pf-6493,"{59: 5, 6: 6, 35: 3}","[6, 35, 59]",66353595,Pr5C6Br3
SrC6,mp-1208630,0.0,5.79066679,0.0,pf-7333,"{38: 1, 6: 6}","[6, 38]",66381,Sr1C6
La12C6I17,mp-571323,0.025599999999999845,5.28715197,0.0,icsd-409830,"{57: 12, 6: 6, 53: 17}","[6, 53, 57]",6653175712,La12C6I17
Ce12C6I17,mp-684020,0.0,5.34724857,0.0,icsd-409836,"{58: 12, 6: 6, 53: 17}","[6, 53, 58]",6653175812,Ce12C6I17
Pr12C6I17,mp-23409,0.0,3.7653886,0.0,icsd-401028,"{59: 12, 6: 6, 53: 17}","[6, 53, 59]",6653175912,Pr12C6I17
Nd12C6I17,mp-571309,0.0,3.82763694,0.0,icsd-417389,"{60: 12, 6: 6, 53: 17}","[6, 53, 60]",6653176012,Nd12C6I17
BaC6,mp-1214417,0.0,5.58967106,0.0,pf-6927,"{56: 1, 6: 6}","[6, 56]",66561,Ba1C6
EuC6,mp-1103990,0.0,5.58802839,0.0,icsd-169041,"{63: 1, 6: 6}","[6, 63]",66631,Eu1C6
Cs2NaCo(CN)6,mp-669384,4.222799999999999,-1.47276178,0.0,icsd-411126,"{55: 2, 11: 1, 27: 1, 6: 6, 7: 6}","[6, 7, 11, 27, 55]",6676111271552,Cs2Na1Co1C6N6
Cs2MnFe(CN)6,mp-640345,0.0,2.69819175,0.0,icsd-151695,"{55: 2, 25: 1, 26: 1, 6: 6, 7: 6}","[6, 7, 25, 26, 55]",6676251261552,Cs2Mn1Fe1C6N6
Cs2CdFe(CN)6,mp-1188970,4.114,0.17195784,0.0,icsd-151696,"{55: 2, 48: 1, 26: 1, 6: 6, 7: 6}","[6, 7, 26, 48, 55]",6676261481552,Cs2Cd1Fe1C6N6
RbLa2C6N6ClO6,mp-1195186,4.103999999999999,1.90408913,0.0,icsd-193896,"{37: 1, 57: 2, 6: 6, 7: 6, 17: 1, 8: 6}","[6, 7, 8, 17, 37, 57]",667686171371572,Rb1La2C6N6Cl1O6
C6N7Cl3,mp-1214997,2.7037,-0.12405617,0.0,pf-4543,"{6: 6, 7: 7, 17: 3}","[6, 7, 17]",6677173,C6N7Cl3
La(C2N3)3,mp-31321,3.5301,-0.05436175,0.0,icsd-391272,"{57: 1, 6: 6, 7: 9}","[6, 7, 57]",6679571,La1C6N9
Pr(C2N3)3,mp-567763,3.5795,-0.5883609,0.0,icsd-391270,"{59: 1, 6: 6, 7: 9}","[6, 7, 59]",6679591,Pr1C6N9
Nd(C2N3)3,mp-31320,3.6366,-0.68047982,0.0,icsd-391269,"{60: 1, 6: 6, 7: 9}","[6, 7, 60]",6679601,Nd1C6N9
Sc5Re2C7,mp-28767,0.0,6.26367913,0.0,icsd-72382,"{21: 5, 75: 2, 6: 7}","[6, 21, 75]",67215752,Sc5Re2C7
Y4C7,mp-1200885,0.6128,4.2315865,0.0,icsd-658826,"{39: 4, 6: 7}","[6, 39]",67394,Y4C7
Ho4C7,mp-1154,0.4560999999999993,4.11175782,0.0,icsd-74817,"{67: 4, 6: 7}","[6, 67]",67674,Ho4C7
Er4C7,mp-1212833,0.39120000000000044,4.02005353,0.0,pf-31263,"{68: 4, 6: 7}","[6, 68]",67684,Er4C7
Er5Re2C7,mp-1213155,0.0,5.35929898,0.0,pf-12106,"{68: 5, 75: 2, 6: 7}","[6, 68, 75]",67685752,Er5Re2C7
Tm4C7,mp-1207978,0.3698000000000006,4.01823032,0.0,pf-41724,"{69: 4, 6: 7}","[6, 69]",67694,Tm4C7
Tm5Re2C7,mp-1207951,0.0,5.32919934,0.0,pf-22649,"{69: 5, 75: 2, 6: 7}","[6, 69, 75]",67695752,Tm5Re2C7
Lu4C7,mp-15178,0.0,4.00163089,0.0,icsd-83382,"{71: 4, 6: 7}","[6, 71]",67714,Lu4C7
Lu5Re2C7,mp-1104880,0.0,5.41265141,0.0,icsd-406416,"{71: 5, 75: 2, 6: 7}","[6, 71, 75]",67715752,Lu5Re2C7
Ce8C8Cl5,mp-583042,0.0,7.18802413,0.0,icsd-419169,"{58: 8, 6: 8, 17: 5}","[6, 17, 58]",68175588,Ce8C8Cl5
Pr8C8Cl5,mp-1196511,0.0,4.65003326,0.0,icsd-420779,"{59: 8, 6: 8, 17: 5}","[6, 17, 59]",68175598,Pr8C8Cl5
Ca11Sn3C8,mp-1198370,0.6589000000000005,3.89929658,0.0,icsd-248857,"{20: 11, 50: 3, 6: 8}","[6, 20, 50]",682011503,Ca11Sn3C8
RbC8,mp-568643,0.0,4.13407378,0.0,icsd-200563,"{37: 1, 6: 8}","[6, 37]",68371,Rb1C8
CsC8,mp-28861,0.0,4.31819688,0.0,icsd-74641,"{55: 1, 6: 8}","[6, 55]",68551,Cs1C8
U5Re3C8,mp-680561,0.0,10.71616156,0.0,icsd-65202,"{92: 5, 75: 3, 6: 8}","[6, 75, 92]",68753925,U5Re3C8
La7Os4C9,mp-570292,0.0,8.02652716,0.0,icsd-419389,"{57: 7, 76: 4, 6: 9}","[6, 57, 76]",69577764,La7Os4C9