formula,material_id,band_gap,efermi,energy_above_hull,database_IDs,comp_atoms,sorted_keys_comp_atoms,comp_number,new_formula
ZnH12C2(N3Cl2)2,mp-707960,4.6886,-1.45137048,0.0,icsd-89682,"{30: 1, 1: 12, 6: 2, 7: 6, 17: 4}","[1, 6, 7, 17, 30]",1126276174301,Zn1H12C2N6Cl4
SnH12C2(NCl)6,mp-1198673,2.8585000000000003,-1.8040183,0.0,icsd-170023,"{50: 1, 1: 12, 6: 2, 7: 6, 17: 6}","[1, 6, 7, 17, 50]",1126276176501,Sn1H12C2N6Cl6
HgH12C2(Br2N3)2,mp-23835,2.7234,-1.27354391,0.0,icsd-260202,"{80: 1, 1: 12, 6: 2, 35: 4, 7: 6}","[1, 6, 7, 35, 80]",1126276354801,Hg1H12C2Br4N6
HgH12C2(I2N3)2,mp-1212424,2.2237999999999998,1.75441362,0.0,pf-16378,"{80: 1, 1: 12, 6: 2, 53: 4, 7: 6}","[1, 6, 7, 53, 80]",1126276534801,Hg1H12C2I4N6
SbH12C2N6F5,mp-697558,4.946,-1.24304853,0.0,icsd-79544,"{51: 1, 1: 12, 6: 2, 7: 6, 9: 5}","[1, 6, 7, 9, 51]",112627695511,Sb1H12C2N6F5
TiH12C2(NF)6,mp-696940,2.8272000000000004,-1.52391845,0.0,icsd-36529,"{22: 1, 1: 12, 6: 2, 7: 6, 9: 6}","[1, 6, 7, 9, 22]",112627696221,Ti1H12C2N6F6
ZrH12C2(NF)6,mp-707343,4.3987,-1.77976383,0.0,icsd-68225,"{40: 1, 1: 12, 6: 2, 7: 6, 9: 6}","[1, 6, 7, 9, 40]",112627696401,Zr1H12C2N6F6
FePH12(CCl)4,mp-1194875,1.5822,-2.16242098,0.0,icsd-194586,"{26: 1, 15: 1, 1: 12, 6: 4, 17: 4}","[1, 6, 15, 17, 26]",11264151174261,Fe1P1H12C4Cl4
FePH12(CBr)4,mp-1190395,1.2953,-1.88595814,0.0,icsd-194602,"{26: 1, 15: 1, 1: 12, 6: 4, 35: 4}","[1, 6, 15, 26, 35]",11264151261354,Fe1P1H12C4Br4
NaHCO3,mp-696396,5.282900000000001,-0.34891957,0.0,icsd-26933,"{11: 1, 1: 1, 6: 1, 8: 3}","[1, 6, 8, 11]",116183111,Na1H1C1O3
CsHCO3,mp-1238754,4.9478,4.66457798,0.0,icsd-300259,"{55: 1, 1: 1, 6: 1, 8: 3}","[1, 6, 8, 55]",116183551,Cs1H1C1O3
HC2N3,mp-1201974,2.5302000000000002,1.73302696,0.0,icsd-248330,"{1: 1, 6: 2, 7: 3}","[1, 6, 7]",116273,H1C2N3
Na2YHC2O7,mp-1202901,4.7079,5.24839084,0.0,icsd-245131,"{11: 2, 39: 1, 1: 1, 6: 2, 8: 7}","[1, 6, 8, 11, 39]",116287112391,Na2Y1H1C2O7
SbHC3(NCl3)3,mp-705514,1.9047,-0.69735969,0.0,icsd-74819,"{51: 1, 1: 1, 6: 3, 7: 3, 17: 9}","[1, 6, 7, 17, 51]",116373179511,Sb1H1C3N3Cl9
TbH(CO2)3,mp-1194953,3.3288,3.69578108,0.0,icsd-291558,"{65: 1, 1: 1, 6: 3, 8: 6}","[1, 6, 8, 65]",116386651,Tb1H1C3O6
UH16C3N4O11,mp-1202470,2.3776,-0.52146496,0.0,icsd-20871,"{92: 1, 1: 16, 6: 3, 7: 4, 8: 11}","[1, 6, 7, 8, 92]",1166374811921,U1H16C3N4O11
CoH18CN6ClO3,mp-1204043,2.3067,0.13932731,0.0,icsd-412059,"{27: 1, 1: 18, 6: 1, 7: 6, 17: 1, 8: 3}","[1, 6, 7, 8, 17, 27]",118617683171271,Co1H18C1N6Cl1O3
Sb2H18C3(IN)9,mp-1202009,2.4614000000000003,0.13255521,0.0,icsd-162075,"{51: 2, 1: 18, 6: 3, 53: 9, 7: 9}","[1, 6, 7, 51, 53]",1186379512539,Sb2H18C3I9N9
Bi2H18C3(IN)9,mp-1016214,2.786,0.09339052,0.0,icsd-162078,"{83: 2, 1: 18, 6: 3, 53: 9, 7: 9}","[1, 6, 7, 53, 83]",1186379539832,Bi2H18C3I9N9
GaH18C3(N3F2)3,mp-23984,4.9737,-1.41871302,0.0,icsd-73705,"{31: 1, 1: 18, 6: 3, 7: 9, 9: 6}","[1, 6, 7, 9, 31]",118637996311,Ga1H18C3N9F6
PH18PtC6S3BrF6,mp-1204443,3.0185,-1.30814338,0.0,icsd-281569,"{15: 1, 1: 18, 78: 1, 6: 6, 16: 3, 35: 1, 9: 6}","[1, 6, 9, 15, 16, 35, 78]",1186696151163351781,P1H18Pt1C6S3Br1F6
P2H19C6I7N,mp-1196394,1.5585,0.57465263,0.0,icsd-408390,"{15: 2, 1: 19, 6: 6, 53: 7, 7: 1}","[1, 6, 7, 15, 53]",1196671152537,P2H19C6I7N1
CaH24C6Br2(N2O)6,mp-1195960,4.6316,3.38711003,0.0,icsd-246795,"{20: 1, 1: 24, 6: 6, 35: 2, 7: 12, 8: 6}","[1, 6, 7, 8, 20, 35]",1246671286201352,Ca1H24C6Br2N12O6
CuH2CN2Cl,mp-1213613,2.2745999999999995,4.06051658,0.0,pf-12384,"{29: 1, 1: 2, 6: 1, 7: 2, 17: 1}","[1, 6, 7, 17, 29]",126172171291,Cu1H2C1N2Cl1
YH2(CO3)2,mp-758103,3.4584,-0.99899526,0.0,icsd-170085,"{39: 1, 1: 2, 6: 2, 8: 6}","[1, 6, 8, 39]",126286391,Y1H2C2O6
Na4Cd3H2(C2O7)2,mp-1195487,2.6660000000000004,3.33094958,0.0,icsd-238320,"{11: 4, 48: 3, 1: 2, 6: 4, 8: 14}","[1, 6, 8, 11, 48]",1264814114483,Na4Cd3H2C4O14
ZnH3CNO3,mp-604229,3.6825,-0.84931029,0.0,icsd-416417,"{30: 1, 1: 3, 6: 1, 7: 1, 8: 3}","[1, 6, 7, 8, 30]",13617183301,Zn1H3C1N1O3
H3C3N5,mp-1212579,3.483,2.64532235,0.0,pf-24799,"{1: 3, 6: 3, 7: 5}","[1, 6, 7]",136375,H3C3N5
Na5H3(CO3)4,mp-730460,4.9055,0.28684821,0.0,icsd-68711,"{11: 5, 1: 3, 6: 4, 8: 12}","[1, 6, 8, 11]",1364812115,Na5H3C4O12
H4CSN2,mp-23930,3.6174999999999997,-0.53016296,0.0,icsd-69145,"{1: 4, 6: 1, 16: 1, 7: 2}","[1, 6, 7, 16]",146172161,H4C1S1N2
H4CN2O,mp-23778,5.0712,-1.21860956,0.0,icsd-100304,"{1: 4, 6: 1, 7: 2, 8: 1}","[1, 6, 7, 8]",14617281,H4C1N2O1
CsH4CN3,mp-1203259,3.6774000000000004,4.52684708,0.0,icsd-425941,"{55: 1, 1: 4, 6: 1, 7: 3}","[1, 6, 7, 55]",146173551,Cs1H4C1N3
Ho2H4CO7,mp-697339,4.9922,0.28258092,0.0,icsd-62030,"{67: 2, 1: 4, 6: 1, 8: 7}","[1, 6, 8, 67]",146187672,Ho2H4C1O7
NaH4C3N3O4,mp-1210160,4.7301,3.50888889,0.0,pf-38851,"{11: 1, 1: 4, 6: 3, 7: 3, 8: 4}","[1, 6, 7, 8, 11]",14637384111,Na1H4C3N3O4
Rb4H4C3O10,mp-863420,4.0445,-0.16058932,0.0,icsd-401720,"{37: 4, 1: 4, 6: 3, 8: 10}","[1, 6, 8, 37]",1463810374,Rb4H4C3O10
Na5ScH4(C2O7)2,mp-24144,4.837,-0.50341897,0.0,icsd-411988,"{11: 5, 21: 1, 1: 4, 6: 4, 8: 14}","[1, 6, 8, 11, 21]",1464814115211,Na5Sc1H4C4O14
Na5LuH4(C2O7)2,mp-1195683,4.793100000000001,-0.6891062,0.0,icsd-237918,"{11: 5, 71: 1, 1: 4, 6: 4, 8: 14}","[1, 6, 8, 11, 71]",1464814115711,Na5Lu1H4C4O14
H5CNO3,mp-560121,5.1511,-1.06646159,0.0,icsd-158914,"{1: 5, 6: 1, 7: 1, 8: 3}","[1, 6, 7, 8]",15617183,H5C1N1O3
PH5CO3,mp-1204941,5.935700000000001,3.63182741,0.0,icsd-190957,"{15: 1, 1: 5, 6: 1, 8: 3}","[1, 6, 8, 15]",156183151,P1H5C1O3
Rb2NaH5(CO4)2,mp-505772,4.1978,-0.65188422,0.0,icsd-77360,"{37: 2, 11: 1, 1: 5, 6: 2, 8: 8}","[1, 6, 8, 11, 37]",156288111372,Rb2Na1H5C2O8
Rb2NaZn2H5(C2O7)2,mp-766230,4.057099999999999,-0.04655307,0.0,icsd-401834,"{37: 2, 11: 1, 30: 2, 1: 5, 6: 4, 8: 14}","[1, 6, 8, 11, 30, 37]",1564814111302372,Rb2Na1Zn2H5C4O14
H6C(NO)2,mp-1212999,4.8731,-1.39763538,0.0,pf-587,"{1: 6, 6: 1, 7: 2, 8: 2}","[1, 6, 7, 8]",16617282,H6C1N2O2
H6CN3Cl,mp-707023,5.107,-1.18080004,0.0,icsd-23835,"{1: 6, 6: 1, 7: 3, 17: 1}","[1, 6, 7, 17]",166173171,H6C1N3Cl1
SnH6C(NCl)3,mp-1199443,3.0469,0.18660211,0.0,icsd-240909,"{50: 1, 1: 6, 6: 1, 7: 3, 17: 3}","[1, 6, 7, 17, 50]",166173173501,Sn1H6C1N3Cl3
CdH6C(BrN)3,mp-695891,3.1149,-0.99957953,0.0,icsd-71850,"{48: 1, 1: 6, 6: 1, 35: 3, 7: 3}","[1, 6, 7, 35, 48]",166173353481,Cd1H6C1Br3N3
CdH6C(IN)3,mp-1192575,2.597,2.1707603,0.0,icsd-239599,"{48: 1, 1: 6, 6: 1, 53: 3, 7: 3}","[1, 6, 7, 48, 53]",166173481533,Cd1H6C1I3N3
PH6C(NF2)3,mp-1204896,5.2849,3.64152712,0.0,icsd-203170,"{15: 1, 1: 6, 6: 1, 7: 3, 9: 6}","[1, 6, 7, 9, 15]",16617396151,P1H6C1N3F6
Cu2H6Pb5C(SO7)3,mp-1202476,0.5598000000000001,3.60080498,0.0,icsd-164674,"{29: 2, 1: 6, 82: 5, 6: 1, 16: 3, 8: 21}","[1, 6, 8, 16, 29, 82]",1661821163292825,Cu2H6Pb5C1S3O21
Cs2H6CO6,mp-758948,4.0513,-0.12932787,0.0,icsd-411685,"{55: 2, 1: 6, 6: 1, 8: 6}","[1, 6, 8, 55]",166186552,Cs2H6C1O6
TaH6C2SeCl5,mp-1192701,2.2733,-1.23528985,0.0,icsd-185277,"{73: 1, 1: 6, 6: 2, 34: 1, 17: 5}","[1, 6, 17, 34, 73]",1662175341731,Ta1H6C2Se1Cl5
GaH6C2SeI3,mp-1201119,2.6612,-0.44034465,0.0,icsd-174217,"{31: 1, 1: 6, 6: 2, 34: 1, 53: 3}","[1, 6, 31, 34, 53]",1662311341533,Ga1H6C2Se1I3
PuP2H6(CO3)2,mp-1204667,0.38249999999999984,1.73882602,0.0,icsd-260294,"{94: 1, 15: 2, 1: 6, 6: 2, 8: 6}","[1, 6, 8, 15, 94]",166286152941,Pu1P2H6C2O6
Rb4H6C2O9,mp-542063,3.9848,-0.20150889,0.0,icsd-411683,"{37: 4, 1: 6, 6: 2, 8: 9}","[1, 6, 8, 37]",166289374,Rb4H6C2O9
Na3YH6(CO4)3,mp-734150,4.889,-0.0192897,0.0,icsd-82498,"{11: 3, 39: 1, 1: 6, 6: 3, 8: 12}","[1, 6, 8, 11, 39]",1663812113391,Na3Y1H6C3O12
PrH6(CO3)3,mp-1209824,3.4398,2.38462082,0.0,pf-29299,"{59: 1, 1: 6, 6: 3, 8: 9}","[1, 6, 8, 59]",166389591,Pr1H6C3O9
H7C3N6Cl,mp-761870,3.7087,-0.32547802,0.0,icsd-281239,"{1: 7, 6: 3, 7: 6, 17: 1}","[1, 6, 7, 17]",176376171,H7C3N6Cl1
ZnH8C2N4(ClO)2,mp-24664,4.7564,-1.51326465,0.0,icsd-87520,"{30: 1, 1: 8, 6: 2, 7: 4, 17: 2, 8: 2}","[1, 6, 7, 8, 17, 30]",18627482172301,Zn1H8C2N4Cl2O2
P2H9(CBr)3,mp-779221,2.3988,0.04348778,0.0,icsd-240230,"{15: 2, 1: 9, 6: 3, 35: 3}","[1, 6, 15, 35]",1963152353,P2H9C3Br3
GaPH9C3Cl3O,mp-1198682,4.9838000000000005,-2.64894325,0.0,icsd-173260,"{31: 1, 15: 1, 1: 9, 6: 3, 17: 3, 8: 1}","[1, 6, 8, 15, 17, 31]",196381151173311,Ga1P1H9C3Cl3O1
H9C6N11,mp-1213393,3.6852,-0.31242165,0.0,pf-1486,"{1: 9, 6: 6, 7: 11}","[1, 6, 7]",1966711,H9C6N11
BeCN2,mp-1189451,5.5087,6.55548201,0.0,icsd-290866,"{4: 1, 6: 1, 7: 2}","[4, 6, 7]",416172,Be1C1N2
Be2C,mp-1569,1.1636999999999995,6.31837236,0.0,icsd-616184,"{4: 2, 6: 1}","[4, 6]",4261,Be2C1
C,mp-2516584,0.10210000000000008,2.43154306,0.0,icsd-28417,{6: 1},[6],61,C1
NaW6CCl18,mp-567182,0.1048,2.13295179,0.0,icsd-418357,"{11: 1, 74: 6, 6: 1, 17: 18}","[6, 11, 17, 74]",611111718746,Na1W6C1Cl18
Dy7Ru2C11,mp-1213045,0.0,5.21333536,0.0,pf-33986,"{66: 7, 44: 2, 6: 11}","[6, 44, 66]",611442667,Dy7Ru2C11
V2PC,mp-8044,0.0,8.39919005,0.0,icsd-181099,"{23: 2, 15: 1, 6: 1}","[6, 15, 23]",61151232,V2P1C1
YPRu2C,mp-1205622,0.0,7.24905694,0.0,pf-25008,"{39: 1, 15: 1, 44: 2, 6: 1}","[6, 15, 39, 44]",61151391442,Y1P1Ru2C1
Nb2PC,mp-9987,0.0,7.37083463,0.0,icsd-43009,"{41: 2, 15: 1, 6: 1}","[6, 15, 41]",61151412,Nb2P1C1
CePRu2C,mp-1080729,0.0,8.79033867,0.0,icsd-260480,"{58: 1, 15: 1, 44: 2, 6: 1}","[6, 15, 44, 58]",61151442581,Ce1P1Ru2C1
SmPRu2C,mp-1079697,0.0,7.05322035,0.0,icsd-260481,"{62: 1, 15: 1, 44: 2, 6: 1}","[6, 15, 44, 62]",61151442621,Sm1P1Ru2C1
TbPRu2C,mp-1080794,0.0,7.2725078,0.0,icsd-260482,"{65: 1, 15: 1, 44: 2, 6: 1}","[6, 15, 44, 65]",61151442651,Tb1P1Ru2C1
DyPRu2C,mp-1205848,0.0,7.23203581,0.0,pf-4066,"{66: 1, 15: 1, 44: 2, 6: 1}","[6, 15, 44, 66]",61151442661,Dy1P1Ru2C1
HoPRu2C,mp-1205704,0.0,7.18112361,0.0,pf-14580,"{67: 1, 15: 1, 44: 2, 6: 1}","[6, 15, 44, 67]",61151442671,Ho1P1Ru2C1
ErPRu2C,mp-1205587,0.0,7.20191298,0.0,pf-25096,"{68: 1, 15: 1, 44: 2, 6: 1}","[6, 15, 44, 68]",61151442681,Er1P1Ru2C1
La2PC,mp-866691,0.0,8.41353906,0.0,icsd-247413,"{57: 2, 15: 1, 6: 1}","[6, 15, 57]",61151572,La2P1C1
V4P2C,mp-29634,0.0,8.44865423,0.0,icsd-42388,"{23: 4, 15: 2, 6: 1}","[6, 15, 23]",61152234,V4P2C1
Ti2CS,mp-3732,0.0,8.20808649,0.0,icsd-43673,"{22: 2, 6: 1, 16: 1}","[6, 16, 22]",61161222,Ti2C1S1
CS14,mp-27814,2.5569,-0.35151479,0.0,icsd-26464,"{6: 1, 16: 14}","[6, 16]",611614,C1S14
Zr2CS,mp-5025,0.0,6.7970435,0.0,icsd-43674,"{40: 2, 6: 1, 16: 1}","[6, 16, 40]",61161402,Zr2C1S1
Hf2CS,mp-13137,0.0,7.64545999,0.0,icsd-162461,"{72: 2, 6: 1, 16: 1}","[6, 16, 72]",61161722,Hf2C1S1
Ta2CS2,mp-559976,0.0,5.48115559,0.0,icsd-23790,"{73: 2, 6: 1, 16: 2}","[6, 16, 73]",61162732,Ta2C1S2
YCCl,mp-1206889,0.0,3.57656369,0.0,pf-15010,"{39: 1, 6: 1, 17: 1}","[6, 17, 39]",61171391,Y1C1Cl1
Ti6CCl14,mp-28913,0.9476999999999998,2.20710545,0.0,icsd-75502,"{22: 6, 6: 1, 17: 14}","[6, 17, 22]",611714226,Ti6C1Cl14
Zr6CCl14,mp-29357,1.2812,2.06981723,0.0,icsd-202915,"{40: 6, 6: 1, 17: 14}","[6, 17, 40]",611714406,Zr6C1Cl14
Hf6CCl14,mp-1212485,1.3758,3.9550928,0.0,pf-5049,"{72: 6, 6: 1, 17: 14}","[6, 17, 72]",611714726,Hf6C1Cl14
RbZr6CCl15,mp-567966,1.1281,1.48392214,0.0,icsd-417754,"{37: 1, 40: 6, 6: 1, 17: 15}","[6, 17, 37, 40]",611715371406,Rb1Zr6C1Cl15
CsZr6CCl15,mp-1213455,1.1421000000000001,1.59653484,0.0,pf-5934,"{55: 1, 40: 6, 6: 1, 17: 15}","[6, 17, 40, 55]",611715406551,Cs1Zr6C1Cl15
CsHf6CCl15,mp-1213477,1.2179,2.04241715,0.0,pf-5147,"{55: 1, 72: 6, 6: 1, 17: 15}","[6, 17, 55, 72]",611715551726,Cs1Hf6C1Cl15
Gd2CCl,mp-28638,0.0,5.25465351,0.0,icsd-68798,"{64: 2, 6: 1, 17: 1}","[6, 17, 64]",61171642,Gd2C1Cl1
Rb4Zr6CCl18,mp-862605,1.2651999999999999,1.3279608,0.0,icsd-165401,"{37: 4, 40: 6, 6: 1, 17: 18}","[6, 17, 37, 40]",611718374406,Rb4Zr6C1Cl18
CsLaZr6CCl18,mp-1213380,1.4203999999999999,2.39484881,0.0,pf-17472,"{55: 1, 57: 1, 40: 6, 6: 1, 17: 18}","[6, 17, 40, 55, 57]",611718406551571,Cs1La1Zr6C1Cl18
Cs2Lu7CCl18,mp-569387,0.0,3.49136234,0.0,icsd-72346,"{55: 2, 71: 7, 6: 1, 17: 18}","[6, 17, 55, 71]",611718552717,Cs2Lu7C1Cl18
W6CCl18,mp-30295,1.1546,0.56060096,0.0,icsd-413026,"{74: 6, 6: 1, 17: 18}","[6, 17, 74]",611718746,W6C1Cl18
Lu2CCl2,mp-573376,1.0343999999999998,2.66327015,0.0,icsd-62227,"{71: 2, 6: 1, 17: 2}","[6, 17, 71]",61172712,Lu2C1Cl2
Gd3CCl3,mp-28133,0.0,4.73896953,0.0,icsd-37323,"{64: 3, 6: 1, 17: 3}","[6, 17, 64]",61173643,Gd3C1Cl3
CCl4,mp-1004532,4.5297,-1.89970897,0.0,icsd-246796,"{6: 1, 17: 4}","[6, 17]",61174,C1Cl4
Ce3CCl5,mp-580802,0.2093999999999996,5.43095476,0.0,icsd-409954,"{58: 3, 6: 1, 17: 5}","[6, 17, 58]",61175583,Ce3C1Cl5
Pr3CCl5,mp-571490,2.3972999999999995,2.44670307,0.0,icsd-418755,"{59: 3, 6: 1, 17: 5}","[6, 17, 59]",61175593,Pr3C1Cl5
Sc5CCl8,mp-31024,0.0,4.52308867,0.0,icsd-60855,"{21: 5, 6: 1, 17: 8}","[6, 17, 21]",61178215,Sc5C1Cl8
ScCo3C,mp-10270,0.0,6.08719646,0.0,icsd-76793,"{21: 1, 27: 3, 6: 1}","[6, 21, 27]",61211273,Sc1Co3C1
ScRu3C,mp-7130,0.0,7.02019737,0.0,icsd-77391,"{21: 1, 44: 3, 6: 1}","[6, 21, 44]",61211443,Sc1Ru3C1
ScRh3C,mp-10712,0.0,6.64454772,0.0,icsd-77385,"{21: 1, 45: 3, 6: 1}","[6, 21, 45]",61211453,Sc1Rh3C1
Sc2C,mp-29941,0.0,4.07763927,0.0,icsd-280743,"{21: 2, 6: 1}","[6, 21]",61212,Sc2C1
Sc2CI3,mp-504934,0.5682999999999998,3.83378795,0.0,icsd-62043,"{21: 2, 6: 1, 53: 3}","[6, 21, 53]",61212533,Sc2C1I3
Sc3GaC,mp-8577,0.0,4.01939445,0.0,icsd-50162,"{21: 3, 31: 1, 6: 1}","[6, 21, 31]",61213311,Sc3Ga1C1
Sc3InC,mp-8578,0.0,5.36975467,0.0,icsd-50163,"{21: 3, 49: 1, 6: 1}","[6, 21, 49]",61213491,Sc3In1C1
Sc3SnC,mp-16297,0.0,6.11995955,0.0,icsd-77397,"{21: 3, 50: 1, 6: 1}","[6, 21, 50]",61213501,Sc3Sn1C1
Sc3TlC,mp-4230,0.0,5.4982611,0.0,icsd-77398,"{21: 3, 81: 1, 6: 1}","[6, 21, 81]",61213811,Sc3Tl1C1
Sc3PbC,mp-21035,0.0,6.14045836,0.0,icsd-77235,"{21: 3, 82: 1, 6: 1}","[6, 21, 82]",61213821,Sc3Pb1C1
Sc7CBr12,mp-504921,0.0,3.65036627,0.0,icsd-61266,"{21: 7, 6: 1, 35: 12}","[6, 21, 35]",612173512,Sc7C1Br12
Sc7CI12,mp-28321,0.0,4.53904895,0.0,icsd-61265,"{21: 7, 6: 1, 53: 12}","[6, 21, 53]",612175312,Sc7C1I12
TiC,mp-631,0.0,7.67533018,0.0,icsd-618928,"{22: 1, 6: 1}","[6, 22]",61221,Ti1C1
Ti2C,mp-10721,0.0,6.03744955,0.0,icsd-77473,"{22: 2, 6: 1}","[6, 22]",61222,Ti2C1
Ti2GaC,mp-12537,0.0,5.92571029,0.0,icsd-617927,"{22: 2, 31: 1, 6: 1}","[6, 22, 31]",61222311,Ti2Ga1C1
Ti2GeC,mp-9958,0.0,7.52217233,0.0,icsd-42921,"{22: 2, 32: 1, 6: 1}","[6, 22, 32]",61222321,Ti2Ge1C1
Ti2CdC,mp-9961,0.0,5.01977095,0.0,icsd-42924,"{22: 2, 48: 1, 6: 1}","[6, 22, 48]",61222481,Ti2Cd1C1
Ti2InC,mp-20315,0.0,7.7277596,0.0,icsd-161964,"{22: 2, 49: 1, 6: 1}","[6, 22, 49]",61222491,Ti2In1C1
Ti2SnC,mp-3871,0.0,8.60997873,0.0,icsd-161064,"{22: 2, 50: 1, 6: 1}","[6, 22, 50]",61222501,Ti2Sn1C1
Ti2TlC,mp-1092281,0.0,7.58112447,0.0,icsd-618954,"{22: 2, 81: 1, 6: 1}","[6, 22, 81]",61222811,Ti2Tl1C1
Ti2PbC,mp-20661,0.0,8.1694894,0.0,icsd-42926,"{22: 2, 82: 1, 6: 1}","[6, 22, 82]",61222821,Ti2Pb1C1
Ti3Zn3C,mp-697076,0.0,4.95768419,0.0,icsd-618966,"{22: 3, 30: 3, 6: 1}","[6, 22, 30]",61223303,Ti3Zn3C1
Ti3InC,mp-20325,0.0,7.73021871,0.0,icsd-163844,"{22: 3, 49: 1, 6: 1}","[6, 22, 49]",61223491,Ti3In1C1
La21Mn8Sn7C12,mp-1201735,0.0,7.41575423,0.0,icsd-182045,"{57: 21, 25: 8, 50: 7, 6: 12}","[6, 25, 50, 57]",6122585075721,La21Mn8Sn7C12
La21Mn8Sb7C12,mp-1203312,0.0,7.80336198,0.0,icsd-182044,"{57: 21, 25: 8, 51: 7, 6: 12}","[6, 25, 51, 57]",6122585175721,La21Mn8Sb7C12
La21Mn8Bi7C12,mp-1200955,0.0,7.60023281,0.0,icsd-182042,"{57: 21, 25: 8, 83: 7, 6: 12}","[6, 25, 57, 83]",6122585721837,La21Mn8Bi7C12
La21Fe8Sn7C12,mp-607917,0.0,7.4158339,0.0,icsd-260239,"{57: 21, 26: 8, 50: 7, 6: 12}","[6, 26, 50, 57]",6122685075721,La21Fe8Sn7C12
La21Fe8Sb7C12,mp-582023,0.0,7.69953309,0.0,icsd-260240,"{57: 21, 26: 8, 51: 7, 6: 12}","[6, 26, 51, 57]",6122685175721,La21Fe8Sb7C12
La21Fe8Bi7C12,mp-647363,0.0,7.65615432,0.0,icsd-260243,"{57: 21, 26: 8, 83: 7, 6: 12}","[6, 26, 57, 83]",6122685721837,La21Fe8Bi7C12
Ce21Fe8Bi7C12,mp-647805,0.0,7.21033056,0.0,icsd-260244,"{58: 21, 26: 8, 83: 7, 6: 12}","[6, 26, 58, 83]",6122685821837,Ce21Fe8Bi7C12
Pr21Fe8Bi7C12,mp-582883,0.0,4.77575402,0.0,icsd-260245,"{59: 21, 26: 8, 83: 7, 6: 12}","[6, 26, 59, 83]",6122685921837,Pr21Fe8Bi7C12
V2C,mp-20648,0.0,6.43580874,0.0,icsd-108192,"{23: 2, 6: 1}","[6, 23]",61232,V2C1
V2GaC,mp-1080835,0.0,6.01411447,0.0,icsd-617929,"{23: 2, 31: 1, 6: 1}","[6, 23, 31]",61232311,V2Ga1C1
V2GeC,mp-9957,0.0,7.73994713,0.0,icsd-166031,"{23: 2, 32: 1, 6: 1}","[6, 23, 32]",61232321,V2Ge1C1
V2AsC,mp-10046,0.0,7.61077635,0.0,icsd-43874,"{23: 2, 33: 1, 6: 1}","[6, 23, 33]",61232331,V2As1C1
V3GeC,mp-1079313,0.0,7.37955839,0.0,icsd-617981,"{23: 3, 32: 1, 6: 1}","[6, 23, 32]",61233321,V3Ge1C1
V3AsC,mp-27769,0.0,7.56205902,0.0,icsd-25761,"{23: 3, 33: 1, 6: 1}","[6, 23, 33]",61233331,V3As1C1
Cr2GaC,mp-20197,0.0,6.56023066,0.0,icsd-419116,"{24: 2, 31: 1, 6: 1}","[6, 24, 31]",61242311,Cr2Ga1C1
Mn3GaC,mp-21313,0.0,6.14596261,0.0,icsd-617912,"{25: 3, 31: 1, 6: 1}","[6, 25, 31]",61253311,Mn3Ga1C1
Mn3Mo3C,mp-15812,0.0,7.73910485,0.0,icsd-76132,"{25: 3, 42: 3, 6: 1}","[6, 25, 42]",61253423,Mn3Mo3C1
Mn3W3C,mp-15813,0.0,7.21876557,0.0,icsd-618280,"{25: 3, 74: 3, 6: 1}","[6, 25, 74]",61253743,Mn3W3C1
Y2Fe14C,mp-1207957,0.0,4.99713822,0.0,pf-39658,"{39: 2, 26: 14, 6: 1}","[6, 26, 39]",612614392,Y2Fe14C1
Sm2Fe14C,mp-1196278,0.0,4.94703279,0.0,icsd-617829,"{62: 2, 26: 14, 6: 1}","[6, 26, 62]",612614622,Sm2Fe14C1
Tb2Fe14C,mp-1197275,0.0,4.9169414,0.0,icsd-617864,"{65: 2, 26: 14, 6: 1}","[6, 26, 65]",612614652,Tb2Fe14C1
Dy2Fe14C,mp-571165,0.0,4.74597122,0.0,icsd-57040,"{66: 2, 26: 14, 6: 1}","[6, 26, 66]",612614662,Dy2Fe14C1
Ho2Fe14C,mp-571245,0.0,4.71180671,0.0,icsd-71657,"{67: 2, 26: 14, 6: 1}","[6, 26, 67]",612614672,Ho2Fe14C1
Er2Fe14C,mp-567623,0.0,4.72643099,0.0,icsd-617650,"{68: 2, 26: 14, 6: 1}","[6, 26, 68]",612614682,Er2Fe14C1
Tm2Fe14C,mp-570414,0.0,4.7091357,0.0,icsd-617876,"{69: 2, 26: 14, 6: 1}","[6, 26, 69]",612614692,Tm2Fe14C1
Lu2Fe14C,mp-567900,0.0,4.70523453,0.0,icsd-617767,"{71: 2, 26: 14, 6: 1}","[6, 26, 71]",612614712,Lu2Fe14C1
Fe6W6C,mp-624243,0.0,7.02768946,0.0,icsd-165458,"{26: 6, 74: 6, 6: 1}","[6, 26, 74]",61266746,Fe6W6C1
LaGa4Fe9C,mp-1211902,0.0,5.91028078,0.0,pf-3290,"{57: 1, 31: 4, 26: 9, 6: 1}","[6, 26, 31, 57]",61269314571,La1Ga4Fe9C1
U6Co12Ge4C,mp-865440,0.0,9.55370013,0.0,icsd-181657,"{92: 6, 27: 12, 32: 4, 6: 1}","[6, 27, 32, 92]",612712324926,U6Co12Ge4C1
YCoC,mp-21422,0.0,4.08540922,0.0,icsd-96327,"{39: 1, 27: 1, 6: 1}","[6, 27, 39]",61271391,Y1Co1C1
GdCoC,mp-20345,0.0,3.8443172,0.0,icsd-61685,"{64: 1, 27: 1, 6: 1}","[6, 27, 64]",61271641,Gd1Co1C1
TbCoC,mp-22158,0.0,4.03076439,0.0,icsd-61686,"{65: 1, 27: 1, 6: 1}","[6, 27, 65]",61271651,Tb1Co1C1
DyCoC,mp-20350,0.0,4.01593841,0.0,icsd-61687,"{66: 1, 27: 1, 6: 1}","[6, 27, 66]",61271661,Dy1Co1C1
HoCoC,mp-20906,0.0,3.95244326,0.0,icsd-61688,"{67: 1, 27: 1, 6: 1}","[6, 27, 67]",61271671,Ho1Co1C1
ErCoC,mp-8475,0.0,3.98372519,0.0,icsd-61689,"{68: 1, 27: 1, 6: 1}","[6, 27, 68]",61271681,Er1Co1C1
TmCoC,mp-19754,0.0,3.96177787,0.0,icsd-61690,"{69: 1, 27: 1, 6: 1}","[6, 27, 69]",61271691,Tm1Co1C1
LuCoC,mp-22714,0.0,3.91735265,0.0,icsd-61691,"{71: 1, 27: 1, 6: 1}","[6, 27, 71]",61271711,Lu1Co1C1
Zr3Zn3C,mp-703492,0.0,4.11547622,0.0,icsd-42934,"{40: 3, 30: 3, 6: 1}","[6, 30, 40]",61303403,Zr3Zn3C1
Hf3Zn3C,mp-722912,0.0,4.57612884,0.0,icsd-42936,"{72: 3, 30: 3, 6: 1}","[6, 30, 72]",61303723,Hf3Zn3C1
Y3GaC,mp-10601,0.0,3.14631909,0.0,icsd-56396,"{39: 3, 31: 1, 6: 1}","[6, 31, 39]",61311393,Y3Ga1C1
Nb2GaC,mp-1079546,0.0,5.32027995,0.0,icsd-617920,"{41: 2, 31: 1, 6: 1}","[6, 31, 41]",61311412,Nb2Ga1C1
Tb3GaC,mp-1206878,0.0,3.11173132,0.0,pf-949,"{65: 3, 31: 1, 6: 1}","[6, 31, 65]",61311653,Tb3Ga1C1
Lu3GaC,mp-1206912,0.0,3.07243448,0.0,pf-19475,"{71: 3, 31: 1, 6: 1}","[6, 31, 71]",61311713,Lu3Ga1C1
Ta2GaC,mp-1025427,0.0,6.15272341,0.0,icsd-617926,"{73: 2, 31: 1, 6: 1}","[6, 31, 73]",61311732,Ta2Ga1C1
Nb2GeC,mp-1078811,0.0,6.7538785,0.0,icsd-188618,"{41: 2, 32: 1, 6: 1}","[6, 32, 41]",61321412,Nb2Ge1C1
Ce5Ge3C,mp-1189506,0.0,6.72341041,0.0,icsd-617345,"{58: 5, 32: 3, 6: 1}","[6, 32, 58]",61323585,Ce5Ge3C1
Dy5Ge3C,mp-1106133,0.0,3.47062647,0.0,icsd-617597,"{66: 5, 32: 3, 6: 1}","[6, 32, 66]",61323665,Dy5Ge3C1