formula,material_id,band_gap,efermi,energy_above_hull,database_IDs,comp_atoms,sorted_keys_comp_atoms,comp_number,new_formula
SrCa2WN4,mp-567568,2.6190999999999995,2.54504209,0.0,icsd-401331,"{38: 1, 20: 2, 74: 1, 7: 4}","[7, 20, 38, 74]",74202381741,Sr1Ca2W1N4
BaCa2WN4,mp-1214597,2.5788999999999995,5.08970699,0.0,pf-6391,"{56: 1, 20: 2, 74: 1, 7: 4}","[7, 20, 56, 74]",74202561741,Ba1Ca2W1N4
Ca3(GaN2)2,mp-571162,1.9148000000000005,3.85255584,0.0,icsd-170442,"{20: 3, 31: 2, 7: 4}","[7, 20, 31]",74203312,Ca3Ga2N4
Ca4TiN4,mp-568469,1.5392000000000001,3.25321257,0.0,icsd-172879,"{20: 4, 22: 1, 7: 4}","[7, 20, 22]",74204221,Ca4Ti1N4
BaCa4(CoN2)2,mp-606338,0.2914000000000003,3.14724569,0.0,icsd-409921,"{56: 1, 20: 4, 27: 2, 7: 4}","[7, 20, 27, 56]",74204272561,Ba1Ca4Co2N4
BaCa4(CuN2)2,mp-569603,0.21879999999999988,3.11687365,0.0,icsd-86066,"{56: 1, 20: 4, 29: 2, 7: 4}","[7, 20, 29, 56]",74204292561,Ba1Ca4Cu2N4
Ca4GeN4,mp-29808,1.5739,3.10983762,0.0,icsd-280251,"{20: 4, 32: 1, 7: 4}","[7, 20, 32]",74204321,Ca4Ge1N4
Ca5(CoN2)2,mp-569383,0.0,3.39467099,0.0,icsd-409920,"{20: 5, 27: 2, 7: 4}","[7, 20, 27]",74205272,Ca5Co2N4
Ca5(GaN2)2,mp-28489,0.0,3.70489826,0.0,icsd-40372,"{20: 5, 31: 2, 7: 4}","[7, 20, 31]",74205312,Ca5Ga2N4
Ca6MnN5,mp-17577,0.7323999999999997,3.75432718,0.0,icsd-80184,"{20: 6, 25: 1, 7: 5}","[7, 20, 25]",75206251,Ca6Mn1N5
Ca6FeN5,mp-16916,0.0,3.96416203,0.0,icsd-33796,"{20: 6, 26: 1, 7: 5}","[7, 20, 26]",75206261,Ca6Fe1N5
Ca6GaN5,mp-17875,0.8130000000000002,2.50749431,0.0,icsd-33795,"{20: 6, 31: 1, 7: 5}","[7, 20, 31]",75206311,Ca6Ga1N5
Ca51W12N56O3,mp-561360,1.7094,3.47180696,0.0,icsd-407713,"{20: 51, 74: 12, 7: 56, 8: 3}","[7, 8, 20, 74]",7568320517412,Ca51W12N56O3
Ba14Na14CaN6,mp-6645,0.0,1.40469394,0.0,icsd-81845,"{56: 14, 11: 14, 20: 1, 7: 6}","[7, 11, 20, 56]",7611142015614,Ba14Na14Ca1N6
Ba14Na7CaN6,mp-570449,0.0,1.51564601,0.0,icsd-411488,"{56: 14, 11: 7, 20: 1, 7: 6}","[7, 11, 20, 56]",761172015614,Ba14Na7Ca1N6
Ca19In8N7,mp-642331,0.0,4.33643442,0.0,icsd-155929,"{20: 19, 49: 8, 7: 7}","[7, 20, 49]",772019498,Ca19In8N7
CaS3O10,mp-1019581,4.9224000000000006,-0.05566731,0.0,icsd-426689,"{20: 1, 16: 3, 8: 10}","[8, 16, 20]",810163201,Ca1S3O10
CaSb10(S3O5)2,mp-504882,1.7765000000000004,4.24580942,0.0,icsd-2107,"{20: 1, 51: 10, 16: 6, 8: 10}","[8, 16, 20, 51]",8101662015110,Ca1Sb10S6O10
Ca2CuTe4(ClO5)2,mp-558663,0.5422000000000002,3.73715243,0.0,icsd-171007,"{20: 2, 29: 1, 52: 4, 17: 2, 8: 10}","[8, 17, 20, 29, 52]",810172202291524,Ca2Cu1Te4Cl2O10
CsCa2Nb3O10,mp-581330,2.0693,1.52863021,0.0,icsd-201425,"{55: 1, 20: 2, 41: 3, 8: 10}","[8, 20, 41, 55]",810202413551,Cs1Ca2Nb3O10
CaNb2P2O11,mp-557786,2.4743,0.72972174,0.0,icsd-72115,"{20: 1, 41: 2, 15: 2, 8: 11}","[8, 15, 20, 41]",811152201412,Ca1Nb2P2O11
CaP4O11,mp-30983,5.3272,-0.69000562,0.0,icsd-6215,"{20: 1, 15: 4, 8: 11}","[8, 15, 20]",811154201,Ca1P4O11
CaTa4O11,mp-3079,3.5437999999999996,1.33249733,0.0,icsd-18306,"{20: 1, 73: 4, 8: 11}","[8, 20, 73]",811201734,Ca1Ta4O11
Ca4P2O,mp-5380,1.2714000000000003,3.5526576,0.0,icsd-402952,"{20: 4, 15: 2, 8: 1}","[8, 15, 20]",81152204,Ca4P2O1
Ca4Cl6O,mp-23326,5.2239,1.12461196,0.0,icsd-418946,"{20: 4, 17: 6, 8: 1}","[8, 17, 20]",81176204,Ca4Cl6O1
CaO,mp-2605,3.6301000000000005,2.25697064,0.0,icsd-75786,"{20: 1, 8: 1}","[8, 20]",81201,Ca1O1
Ca3GeO,mp-17193,0.14019999999999921,4.45001187,0.0,icsd-413383,"{20: 3, 32: 1, 8: 1}","[8, 20, 32]",81203321,Ca3Ge1O1
Ca3SnO,mp-29241,0.0,5.12010076,0.0,icsd-100787,"{20: 3, 50: 1, 8: 1}","[8, 20, 50]",81203501,Ca3Sn1O1
Ca3PbO,mp-20273,0.0,5.18116312,0.0,icsd-100789,"{20: 3, 82: 1, 8: 1}","[8, 20, 82]",81203821,Ca3Pb1O1
Ca4As2O,mp-8789,1.2134999999999998,3.25380141,0.0,icsd-68203,"{20: 4, 33: 2, 8: 1}","[8, 20, 33]",81204332,Ca4As2O1
Ca4Sb2O,mp-13660,0.9078999999999997,4.33754022,0.0,icsd-16353,"{20: 4, 51: 2, 8: 1}","[8, 20, 51]",81204512,Ca4Sb2O1
Ca4Bi2O,mp-551873,0.8131000000000004,4.15265505,0.0,icsd-416137,"{20: 4, 83: 2, 8: 1}","[8, 20, 83]",81204832,Ca4Bi2O1
Ca2P3Pb3ClO12,mp-1214153,4.0710999999999995,7.17947256,0.0,pf-8534,"{20: 2, 15: 3, 82: 3, 17: 1, 8: 12}","[8, 15, 17, 20, 82]",812153171202823,Ca2P3Pb3Cl1O12
Ca5P3ClO12,mp-555164,5.6421,2.02612,0.0,icsd-2789,"{20: 5, 15: 3, 17: 1, 8: 12}","[8, 15, 17, 20]",812153171205,Ca5P3Cl1O12
BaCa(PO3)4,mp-556122,5.7468,0.41082451,0.0,icsd-420329,"{56: 1, 20: 1, 15: 4, 8: 12}","[8, 15, 20, 56]",812154201561,Ba1Ca1P4O12
Rb2Ca2(SO4)3,mp-558752,5.3971,0.09096795,0.0,icsd-249339,"{37: 2, 20: 2, 16: 3, 8: 12}","[8, 16, 20, 37]",812163202372,Rb2Ca2S3O12
Cs2Ca2(SO4)3,mp-1213739,5.6575,0.57472174,0.0,pf-3971,"{55: 2, 20: 2, 16: 3, 8: 12}","[8, 16, 20, 55]",812163202552,Cs2Ca2S3O12
Ca2As3Pb3ClO12,mp-557347,3.435,2.60228577,0.0,icsd-40092,"{20: 2, 33: 3, 82: 3, 17: 1, 8: 12}","[8, 17, 20, 33, 82]",812171202333823,Ca2As3Pb3Cl1O12
Ca5V3ClO12,mp-1202595,3.7998,4.51950819,0.0,icsd-184826,"{20: 5, 23: 3, 17: 1, 8: 12}","[8, 17, 20, 23]",812171205233,Ca5V3Cl1O12
CaV4(AgO6)2,mp-16967,1.9174000000000002,0.70517657,0.0,icsd-161369,"{20: 1, 23: 4, 47: 2, 8: 12}","[8, 20, 23, 47]",812201234472,Ca1V4Ag2O12
Ca2YAs(WO6)2,mp-17019,3.6918999999999995,1.73147689,0.0,icsd-71562,"{20: 2, 39: 1, 33: 1, 74: 2, 8: 12}","[8, 20, 33, 39, 74]",812202331391742,Ca2Y1As1W2O12
Ca3Sc2(GeO4)3,mp-21989,3.4661999999999997,1.771233,0.0,icsd-20215,"{20: 3, 21: 2, 32: 3, 8: 12}","[8, 20, 21, 32]",812203212323,Ca3Sc2Ge3O12
Ca3Ti3Cr2O12,mp-1214263,3.0906999999999996,2.42776001,0.0,pf-28682,"{20: 3, 22: 3, 24: 2, 8: 12}","[8, 20, 22, 24]",812203223242,Ca3Ti3Cr2O12
Ca3Cr2(GeO4)3,mp-1048585,2.9977000000000005,2.45794828,0.0,pf-24090,"{20: 3, 24: 2, 32: 3, 8: 12}","[8, 20, 24, 32]",812203242323,Ca3Cr2Ge3O12
Ca3Mn2(GeO4)3,mp-744259,1.017,2.76708836,0.0,icsd-89835,"{20: 3, 25: 2, 32: 3, 8: 12}","[8, 20, 25, 32]",812203252323,Ca3Mn2Ge3O12
Ca3Fe2(GeO4)3,mp-21971,2.4209000000000005,2.16371016,0.0,icsd-28176,"{20: 3, 26: 2, 32: 3, 8: 12}","[8, 20, 26, 32]",812203262323,Ca3Fe2Ge3O12
Ca3Co(SeO3)4,mp-561911,2.7443999999999997,1.06966695,0.0,icsd-82164,"{20: 3, 27: 1, 34: 4, 8: 12}","[8, 20, 27, 34]",812203271344,Ca3Co1Se4O12
Ca3Zn3(TeO6)2,mp-14778,2.1295999999999995,2.4927827,0.0,icsd-67045,"{20: 3, 30: 3, 52: 2, 8: 12}","[8, 20, 30, 52]",812203303522,Ca3Zn3Te2O12
Ca3Ga2(GeO4)3,mp-1019565,2.9786,1.96090592,0.0,icsd-195450,"{20: 3, 31: 2, 32: 3, 8: 12}","[8, 20, 31, 32]",812203312323,Ca3Ga2Ge3O12
Ca3Ga3(SnO6)2,mp-1214159,0.0,2.27179397,0.0,pf-9590,"{20: 3, 31: 3, 50: 2, 8: 12}","[8, 20, 31, 50]",812203313502,Ca3Ga3Sn2O12
Ca3Y2(GeO4)3,mp-669331,3.2592,1.50057409,0.0,icsd-280048,"{20: 3, 39: 2, 32: 3, 8: 12}","[8, 20, 32, 39]",812203323392,Ca3Y2Ge3O12
Ca3Ge3(RhO6)2,mp-1214274,1.5931000000000002,3.49875965,0.0,pf-32222,"{20: 3, 32: 3, 45: 2, 8: 12}","[8, 20, 32, 45]",812203323452,Ca3Ge3Rh2O12
Ca3In2(GeO4)3,mp-1214247,2.6717999999999997,3.22949006,0.0,pf-12286,"{20: 3, 49: 2, 32: 3, 8: 12}","[8, 20, 32, 49]",812203323492,Ca3In2Ge3O12
Ca3Tm2(GeO4)3,mp-1214304,3.2590000000000003,2.15108284,0.0,pf-1913,"{20: 3, 69: 2, 32: 3, 8: 12}","[8, 20, 32, 69]",812203323692,Ca3Tm2Ge3O12
Ca3Lu2(GeO4)3,mp-1214423,3.2916,2.12878283,0.0,pf-22819,"{20: 3, 71: 2, 32: 3, 8: 12}","[8, 20, 32, 71]",812203323712,Ca3Lu2Ge3O12
Ca5(IO6)2,mp-1196062,2.5412999999999997,5.4364731,0.0,icsd-237980,"{20: 5, 53: 2, 8: 12}","[8, 20, 53]",812205532,Ca5I2O12
Ca5(ReO6)2,mp-558966,2.1161000000000003,1.90888874,0.0,icsd-72868,"{20: 5, 75: 2, 8: 12}","[8, 20, 75]",812205752,Ca5Re2O12
Ca5P3O12F,mp-6473,5.5148,1.90364645,0.0,icsd-240629,"{20: 5, 15: 3, 8: 12, 9: 1}","[8, 9, 15, 20]",81291153205,Ca5P3O12F1
Ca5V3O12F,mp-556759,3.8685000000000005,0.72606402,0.0,icsd-172997,"{20: 5, 23: 3, 8: 12, 9: 1}","[8, 9, 20, 23]",81291205233,Ca5V3O12F1
Ca5As3O12F,mp-557482,3.9518000000000004,1.23575738,0.0,icsd-172996,"{20: 5, 33: 3, 8: 12, 9: 1}","[8, 9, 20, 33]",81291205333,Ca5As3O12F1
Ca3Ta4(O6F)2,mp-560378,3.8739,0.95104682,0.0,icsd-157315,"{20: 3, 73: 4, 8: 12, 9: 2}","[8, 9, 20, 73]",81292203734,Ca3Ta4O12F2
Cs3CaFe(P2O7)2,mp-1198664,2.4361,0.87436689,0.0,icsd-260759,"{55: 3, 20: 1, 26: 1, 15: 4, 8: 14}","[8, 15, 20, 26, 55]",814154201261553,Cs3Ca1Fe1P4O14
Ca3Pr2Sb3O14,mp-1214039,0.0,2.99956623,0.0,pf-8190,"{20: 3, 59: 2, 51: 3, 8: 14}","[8, 20, 51, 59]",814203513592,Ca3Pr2Sb3O14
Ca3Cr3(PO4)4,mp-557821,3.2415999999999996,2.6079441,0.0,icsd-412381,"{20: 3, 24: 3, 15: 4, 8: 16}","[8, 15, 20, 24]",816154203243,Ca3Cr3P4O16
Ca3Cu3(PO4)4,mp-6118,0.6475,2.4317422,0.0,icsd-159900,"{20: 3, 29: 3, 15: 4, 8: 16}","[8, 15, 20, 29]",816154203293,Ca3Cu3P4O16
CaU(MoO4)4,mp-556730,2.0011,0.77038943,0.0,icsd-202234,"{20: 1, 92: 1, 42: 4, 8: 16}","[8, 20, 42, 92]",816201424921,Ca1U1Mo4O16
Ca2Zr5Ti2O16,mp-667369,2.9678,2.63372289,0.0,icsd-85193,"{20: 2, 40: 5, 22: 2, 8: 16}","[8, 20, 22, 40]",816202222405,Ca2Zr5Ti2O16
Ca3Fe2(SeO3)6,mp-560990,1.9936,1.29679456,0.0,icsd-78910,"{20: 3, 26: 2, 34: 6, 8: 18}","[8, 20, 26, 34]",818203262346,Ca3Fe2Se6O18
Ca4P6O19,mp-559537,5.361800000000001,1.30084659,0.0,icsd-414341,"{20: 4, 15: 6, 8: 19}","[8, 15, 20]",819156204,Ca4P6O19
CaBi6(PO5)4,mp-556615,3.5376000000000003,3.50563428,0.0,icsd-281391,"{20: 1, 83: 6, 15: 4, 8: 20}","[8, 15, 20, 83]",820154201836,Ca1Bi6P4O20
Ba7Ca2Mn5O20,mp-556409,0.7955000000000001,2.372734,0.0,icsd-59699,"{56: 7, 20: 2, 25: 5, 8: 20}","[8, 20, 25, 56]",820202255567,Ba7Ca2Mn5O20
CaNb2(P2O7)3,mp-555424,2.3702,-0.29646685,0.0,icsd-62577,"{20: 1, 41: 2, 15: 6, 8: 21}","[8, 15, 20, 41]",821156201412,Ca1Nb2P6O21
CaFeClO2,mp-549711,0.6341000000000001,1.99023481,0.0,icsd-96556,"{20: 1, 26: 1, 17: 1, 8: 2}","[8, 17, 20, 26]",82171201261,Ca1Fe1Cl1O2
CaBiClO2,mp-553025,3.6238,1.93454292,0.0,icsd-84635,"{20: 1, 83: 1, 17: 1, 8: 2}","[8, 17, 20, 83]",82171201831,Ca1Bi1Cl1O2
CaHgO2,mp-7041,2.125,0.77144662,0.0,icsd-80717,"{20: 1, 80: 1, 8: 2}","[8, 20, 80]",82201801,Ca1Hg1O2
Ca2Cu(BrO)2,mp-545481,0.0,2.77531858,0.0,icsd-1028,"{20: 2, 29: 1, 35: 2, 8: 2}","[8, 20, 29, 35]",82202291352,Ca2Cu1Br2O2
Ca10P6SeO24,mp-17516,3.7474999999999996,3.16150354,0.0,icsd-410781,"{20: 10, 15: 6, 34: 1, 8: 24}","[8, 15, 20, 34]",8241562010341,Ca10P6Se1O24
CaTi4(PO4)6,mp-16831,2.4899,0.78898058,0.0,icsd-73607,"{20: 1, 22: 4, 15: 6, 8: 24}","[8, 15, 20, 22]",824156201224,Ca1Ti4P6O24
CaZr4(PO4)6,mp-556440,4.1720999999999995,0.10116889,0.0,icsd-151683,"{20: 1, 40: 4, 15: 6, 8: 24}","[8, 15, 20, 40]",824156201404,Ca1Zr4P6O24
Ca11(ReO6)4,mp-29532,0.0,4.25260632,0.0,icsd-380153,"{20: 11, 75: 4, 8: 24}","[8, 20, 75]",8242011754,Ca11Re4O24
NaCa9Mn(PO4)7,mp-16553,4.864700000000001,6.93717669,0.0,icsd-94539,"{11: 1, 20: 9, 25: 1, 15: 7, 8: 28}","[8, 11, 15, 20, 25]",828111157209251,Na1Ca9Mn1P7O28
Ca10Ag(PO4)7,mp-1202534,3.7416,1.90300935,0.0,icsd-188661,"{20: 10, 47: 1, 15: 7, 8: 28}","[8, 15, 20, 47]",8281572010471,Ca10Ag1P7O28
Ca9Cr(PO4)7,mp-560257,2.5002,1.90368544,0.0,icsd-240904,"{20: 9, 24: 1, 15: 7, 8: 28}","[8, 15, 20, 24]",828157209241,Ca9Cr1P7O28
Ca9In(PO4)7,mp-555661,4.0941,1.9110316,0.0,icsd-59590,"{20: 9, 49: 1, 15: 7, 8: 28}","[8, 15, 20, 49]",828157209491,Ca9In1P7O28
CaTiO3,mp-4019,2.3053,3.09815529,0.0,icsd-167888,"{20: 1, 22: 1, 8: 3}","[8, 20, 22]",83201221,Ca1Ti1O3
CaFeO3,mp-19115,0.0,2.99028011,0.0,icsd-92353,"{20: 1, 26: 1, 8: 3}","[8, 20, 26]",83201261,Ca1Fe1O3
CaSeO3,mp-557997,4.2602,1.86459675,0.0,icsd-159880,"{20: 1, 34: 1, 8: 3}","[8, 20, 34]",83201341,Ca1Se1O3
CaZrO3,mp-4571,3.8263000000000003,1.9903747,0.0,icsd-130053,"{20: 1, 40: 1, 8: 3}","[8, 20, 40]",83201401,Ca1Zr1O3
CaTcO3,mp-1188853,0.0,5.43740323,0.0,icsd-261341,"{20: 1, 43: 1, 8: 3}","[8, 20, 43]",83201431,Ca1Tc1O3
CaRuO3,mp-20947,0.0,4.6024392,0.0,icsd-82973,"{20: 1, 44: 1, 8: 3}","[8, 20, 44]",83201441,Ca1Ru1O3
CaRhO3,mp-1078659,0.0,4.01795304,0.0,icsd-164774,"{20: 1, 45: 1, 8: 3}","[8, 20, 45]",83201451,Ca1Rh1O3
CaSnO3,mp-4438,2.3301,4.10175427,0.0,icsd-151594,"{20: 1, 50: 1, 8: 3}","[8, 20, 50]",83201501,Ca1Sn1O3
CaIrO3,mp-4243,0.0,5.1646301,0.0,icsd-159030,"{20: 1, 77: 1, 8: 3}","[8, 20, 77]",83201771,Ca1Ir1O3
CaPtO3,mp-4784,1.2953000000000001,4.37077874,0.0,icsd-160328,"{20: 1, 78: 1, 8: 3}","[8, 20, 78]",83201781,Ca1Pt1O3
Ca2CuO3,mp-5869,0.0,4.29986781,0.0,icsd-16216,"{20: 2, 29: 1, 8: 3}","[8, 20, 29]",83202291,Ca2Cu1O3
NaCaPO4,mp-14401,4.914,2.09604907,0.0,icsd-35629,"{11: 1, 20: 1, 15: 1, 8: 4}","[8, 11, 15, 20]",84111151201,Na1Ca1P1O4
NaCaVO4,mp-19302,3.4865999999999997,0.37418058,0.0,icsd-32573,"{11: 1, 20: 1, 23: 1, 8: 4}","[8, 11, 20, 23]",84111201231,Na1Ca1V1O4
NaCaAsO4,mp-1193109,3.5934,0.41768508,0.0,icsd-262123,"{11: 1, 20: 1, 33: 1, 8: 4}","[8, 11, 20, 33]",84111201331,Na1Ca1As1O4
Ca2PClO4,mp-554081,5.3770999999999995,1.82310749,0.0,icsd-15316,"{20: 2, 15: 1, 17: 1, 8: 4}","[8, 15, 17, 20]",84151171202,Ca2P1Cl1O4
CaSO4,mp-4406,5.9508,1.34146104,0.0,icsd-183918,"{20: 1, 16: 1, 8: 4}","[8, 16, 20]",84161201,Ca1S1O4
Ca2VClO4,mp-557276,3.4639000000000006,0.91548909,0.0,icsd-26235,"{20: 2, 23: 1, 17: 1, 8: 4}","[8, 17, 20, 23]",84171202231,Ca2V1Cl1O4
Ca2AsClO4,mp-560595,3.8088999999999995,1.38851594,0.0,icsd-26234,"{20: 2, 33: 1, 17: 1, 8: 4}","[8, 17, 20, 33]",84171202331,Ca2As1Cl1O4
CaSc2O4,mp-4056,3.4579999999999997,2.95338257,0.0,icsd-16886,"{20: 1, 21: 2, 8: 4}","[8, 20, 21]",84201212,Ca1Sc2O4
CaV2O4,mp-504712,0.0,5.91063804,0.0,icsd-164187,"{20: 1, 23: 2, 8: 4}","[8, 20, 23]",84201232,Ca1V2O4
CaCrO4,mp-19215,2.3714,-0.07153711,0.0,icsd-30283,"{20: 1, 24: 1, 8: 4}","[8, 20, 24]",84201241,Ca1Cr1O4
CaCr2O4,mp-540593,0.0,5.42719393,0.0,icsd-8288,"{20: 1, 24: 2, 8: 4}","[8, 20, 24]",84201242,Ca1Cr2O4
CaMnGeO4,mp-1214074,1.7912999999999997,2.77934161,0.0,pf-31872,"{20: 1, 25: 1, 32: 1, 8: 4}","[8, 20, 25, 32]",84201251321,Ca1Mn1Ge1O4
CaMn2O4,mp-18844,2.0103,3.26728442,0.0,icsd-280514,"{20: 1, 25: 2, 8: 4}","[8, 20, 25]",84201252,Ca1Mn2O4
CaCoGeO4,mp-1213999,2.0128,2.38755704,0.0,pf-507,"{20: 1, 27: 1, 32: 1, 8: 4}","[8, 20, 27, 32]",84201271321,Ca1Co1Ge1O4
Ca(CoO2)2,mp-17544,1.6139000000000001,4.24292736,0.0,icsd-245715,"{20: 1, 27: 2, 8: 4}","[8, 20, 27]",84201272,Ca1Co2O4
CaAgAsO4,mp-1213950,1.3571999999999997,2.05873852,0.0,pf-36457,"{20: 1, 47: 1, 33: 1, 8: 4}","[8, 20, 33, 47]",84201331471,Ca1Ag1As1O4
CaSeO4,mp-1095230,3.2683,1.68173968,0.0,icsd-193629,"{20: 1, 34: 1, 8: 4}","[8, 20, 34]",84201341,Ca1Se1O4
CaNb2O4,mp-29792,1.2773000000000003,5.15353506,0.0,icsd-88779,"{20: 1, 41: 2, 8: 4}","[8, 20, 41]",84201412,Ca1Nb2O4
CaMoO4,mp-19330,3.5006999999999997,1.50237155,0.0,icsd-23699,"{20: 1, 42: 1, 8: 4}","[8, 20, 42]",84201421,Ca1Mo1O4
Ca(RhO2)2,mp-17998,0.5796999999999999,5.05747194,0.0,icsd-170597,"{20: 1, 45: 2, 8: 4}","[8, 20, 45]",84201452,Ca1Rh2O4
CaPd3O4,mp-3315,0.0,3.85709636,0.0,icsd-27502,"{20: 1, 46: 3, 8: 4}","[8, 20, 46]",84201463,Ca1Pd3O4
CaTeO4,mp-12221,2.2712,2.51427046,0.0,icsd-8097,"{20: 1, 52: 1, 8: 4}","[8, 20, 52]",84201521,Ca1Te1O4
CaWO4,mp-19426,4.3443,1.37118966,0.0,icsd-60550,"{20: 1, 74: 1, 8: 4}","[8, 20, 74]",84201741,Ca1W1O4
Ca(AuO2)2,mp-2898,1.6618000000000004,2.47158167,0.0,icsd-79802,"{20: 1, 79: 2, 8: 4}","[8, 20, 79]",84201792,Ca1Au2O4
CaTl2O4,mp-5402,0.043900000000000716,4.19507317,0.0,icsd-413874,"{20: 1, 81: 2, 8: 4}","[8, 20, 81]",84201812,Ca1Tl2O4
Ca(BiO2)2,mp-558751,2.4507,2.67564903,0.0,icsd-78089,"{20: 1, 83: 2, 8: 4}","[8, 20, 83]",84201832,Ca1Bi2O4
CaUO4,mp-3960,2.1038999999999994,4.23805998,0.0,icsd-425121,"{20: 1, 92: 1, 8: 4}","[8, 20, 92]",84201921,Ca1U1O4
Ca2GeO4,mp-560647,3.6002,0.85144141,0.0,icsd-173459,"{20: 2, 32: 1, 8: 4}","[8, 20, 32]",84202321,Ca2Ge1O4
Ca2SnO4,mp-4747,2.7198,3.35927175,0.0,icsd-9011,"{20: 2, 50: 1, 8: 4}","[8, 20, 50]",84202501,Ca2Sn1O4
Ca2PbO4,mp-21137,1.4813,3.16937314,0.0,icsd-36629,"{20: 2, 82: 1, 8: 4}","[8, 20, 82]",84202821,Ca2Pb1O4
Na2CaPO4F,mp-559376,4.7508,0.97627427,0.0,icsd-158183,"{11: 2, 20: 1, 15: 1, 8: 4, 9: 1}","[8, 9, 11, 15, 20]",8491112151201,Na2Ca1P1O4F1
Ca3WCl2O5,mp-558558,3.9325,1.16841398,0.0,icsd-2335,"{20: 3, 74: 1, 17: 2, 8: 5}","[8, 17, 20, 74]",85172203741,Ca3W1Cl2O5
CaVBiO5,mp-560755,3.2483999999999997,1.55653237,0.0,icsd-73184,"{20: 1, 23: 1, 83: 1, 8: 5}","[8, 20, 23, 83]",85201231831,Ca1V1Bi1O5
CaV2O5,mp-19305,0.0,3.87421818,0.0,icsd-82689,"{20: 1, 23: 2, 8: 5}","[8, 20, 23]",85201232,Ca1V2O5
CaGe2O5,mp-4279,2.6965999999999997,3.38726056,0.0,icsd-156194,"{20: 1, 32: 2, 8: 5}","[8, 20, 32]",85201322,Ca1Ge2O5
CaSe2O5,mp-27845,3.4779000000000004,0.96179504,0.0,icsd-27209,"{20: 1, 34: 2, 8: 5}","[8, 20, 34]",85201342,Ca1Se2O5
CaTe2O5,mp-5040,3.3756,2.27425736,0.0,icsd-419646,"{20: 1, 52: 2, 8: 5}","[8, 20, 52]",85201522,Ca1Te2O5
Ca2Fe2O5,mp-22113,0.8630999999999998,3.65982951,0.0,icsd-161509,"{20: 2, 26: 2, 8: 5}","[8, 20, 26]",85202262,Ca2Fe2O5
NaCa2IO6,mp-1189407,2.6721999999999997,5.37396264,0.0,icsd-425448,"{11: 1, 20: 2, 53: 1, 8: 6}","[8, 11, 20, 53]",86111202531,Na1Ca2I1O6
NaCa3RuO6,mp-6281,0.43900000000000006,3.49155639,0.0,icsd-50021,"{11: 1, 20: 3, 44: 1, 8: 6}","[8, 11, 20, 44]",86111203441,Na1Ca3Ru1O6
Na3Ca2TaO6,mp-18480,4.2075,1.62961057,0.0,icsd-280284,"{11: 3, 20: 2, 73: 1, 8: 6}","[8, 11, 20, 73]",86113202731,Na3Ca2Ta1O6
Na3Ca2BiO6,mp-557506,1.5495,1.91426343,0.0,icsd-240975,"{11: 3, 20: 2, 83: 1, 8: 6}","[8, 11, 20, 83]",86113202831,Na3Ca2Bi1O6
Ca(PO3)2,mp-5680,5.4485,1.03386863,0.0,icsd-60117,"{20: 1, 15: 2, 8: 6}","[8, 15, 20]",86152201,Ca1P2O6
CaS2(ClO3)2,mp-556040,4.6536,-1.17049807,0.0,icsd-69658,"{20: 1, 16: 2, 17: 2, 8: 6}","[8, 16, 17, 20]",86162172201,Ca1S2Cl2O6
CaV2O6,mp-27624,2.8812,-0.63153672,0.0,icsd-21064,"{20: 1, 23: 2, 8: 6}","[8, 20, 23]",86201232,Ca1V2O6
CaMn(GeO3)2,mp-1043484,1.6037000000000003,2.68002381,0.0,pf-1156,"{20: 1, 25: 1, 32: 2, 8: 6}","[8, 20, 25, 32]",86201251322,Ca1Mn1Ge2O6
CaFe(GeO3)2,mp-1043513,1.6032000000000002,2.80648068,0.0,icsd-290257,"{20: 1, 26: 1, 32: 2, 8: 6}","[8, 20, 26, 32]",86201261322,Ca1Fe1Ge2O6
Ca(AsO3)2,mp-4555,3.3115,2.18515948,0.0,icsd-29534,"{20: 1, 33: 2, 8: 6}","[8, 20, 33]",86201332,Ca1As2O6
Sr2CaMoO6,mp-19116,2.6243,1.94062282,0.0,icsd-380254,"{38: 2, 20: 1, 42: 1, 8: 6}","[8, 20, 38, 42]",86201382421,Sr2Ca1Mo1O6
Sr2CaSbO6,mp-1208881,0.0,2.32516045,0.0,pf-2951,"{38: 2, 20: 1, 51: 1, 8: 6}","[8, 20, 38, 51]",86201382511,Sr2Ca1Sb1O6
Sr2CaTeO6,mp-11982,3.2142,2.86756709,0.0,icsd-414435,"{38: 2, 20: 1, 52: 1, 8: 6}","[8, 20, 38, 52]",86201382521,Sr2Ca1Te1O6
Sr2CaWO6,mp-1105247,3.5269,5.32057957,0.0,icsd-195964,"{38: 2, 20: 1, 74: 1, 8: 6}","[8, 20, 38, 74]",86201382741,Sr2Ca1W1O6
Sr2CaReO6,mp-1188807,0.0,4.20544632,0.0,icsd-182568,"{38: 2, 20: 1, 75: 1, 8: 6}","[8, 20, 38, 75]",86201382751,Sr2Ca1Re1O6
Sr2CaIrO6,mp-15002,0.0,3.07508409,0.0,icsd-79451,"{38: 2, 20: 1, 77: 1, 8: 6}","[8, 20, 38, 77]",86201382771,Sr2Ca1Ir1O6
Sr2CaUO6,mp-14551,2.2089,2.60567318,0.0,icsd-62539,"{38: 2, 20: 1, 92: 1, 8: 6}","[8, 20, 38, 92]",86201382921,Sr2Ca1U1O6
Sr3CaIrO6,mp-559635,0.0,3.8096039,0.0,icsd-81899,"{38: 3, 20: 1, 77: 1, 8: 6}","[8, 20, 38, 77]",86201383771,Sr3Ca1Ir1O6
CaNb2O6,mp-17101,3.6052,1.06759459,0.0,icsd-15208,"{20: 1, 41: 2, 8: 6}","[8, 20, 41]",86201412,Ca1Nb2O6
Ba2CaMoO6,mp-19403,2.258,2.36964069,0.0,icsd-45317,"{56: 2, 20: 1, 42: 1, 8: 6}","[8, 20, 42, 56]",86201421562,Ba2Ca1Mo1O6
Ba2Ca(PdO2)3,mp-17380,1.4866000000000001,2.58720544,0.0,icsd-73082,"{56: 2, 20: 1, 46: 3, 8: 6}","[8, 20, 46, 56]",86201463562,Ba2Ca1Pd3O6
Ca(SbO3)2,mp-9125,2.6942999999999997,3.05302669,0.0,icsd-74539,"{20: 1, 51: 2, 8: 6}","[8, 20, 51]",86201512,Ca1Sb2O6
Ba2CaTeO6,mp-550685,2.9976,3.0895686,0.0,icsd-246112,"{56: 2, 20: 1, 52: 1, 8: 6}","[8, 20, 52, 56]",86201521562,Ba2Ca1Te1O6
Ca(IO3)2,mp-27535,3.3591999999999995,5.76398408,0.0,icsd-1391,"{20: 1, 53: 2, 8: 6}","[8, 20, 53]",86201532,Ca1I2O6
Ba2CaWO6,mp-19098,3.2912,2.01791139,0.0,icsd-171985,"{56: 2, 20: 1, 74: 1, 8: 6}","[8, 20, 56, 74]",86201562741,Ba2Ca1W1O6
Ba2CaReO6,mp-12417,0.0,4.26474799,0.0,icsd-171987,"{56: 2, 20: 1, 75: 1, 8: 6}","[8, 20, 56, 75]",86201562751,Ba2Ca1Re1O6
Ba2CaOsO6,mp-6739,0.0,3.84737387,0.0,icsd-171988,"{56: 2, 20: 1, 76: 1, 8: 6}","[8, 20, 56, 76]",86201562761,Ba2Ca1Os1O6
Ba2CaIrO6,mp-20841,0.0,3.11586827,0.0,icsd-74029,"{56: 2, 20: 1, 77: 1, 8: 6}","[8, 20, 56, 77]",86201562771,Ba2Ca1Ir1O6