formula,material_id,band_gap,efermi,energy_above_hull,database_IDs,comp_atoms,sorted_keys_comp_atoms,comp_number,new_formula
Na10CaSn12,mp-30252,0.6648999999999998,3.36400633,0.0,icsd-240006,"{11: 10, 20: 1, 50: 12}","[11, 20, 50]",11102015012,Na10Ca1Sn12
Ca5P3H,mp-1105373,0.6829000000000001,4.46288287,0.0,icsd-429049,"{20: 5, 15: 3, 1: 1}","[1, 15, 20]",11153205,Ca5P3H1
CaHCl,mp-23859,3.8394000000000004,1.87769822,0.0,icsd-25601,"{20: 1, 1: 1, 17: 1}","[1, 17, 20]",11171201,Ca1H1Cl1
CaGaGeH,mp-1018093,0.5269000000000004,3.38434894,0.0,icsd-173567,"{20: 1, 31: 1, 32: 1, 1: 1}","[1, 20, 31, 32]",11201311321,Ca1Ga1Ge1H1
CaHBr,mp-24422,4.1152,0.7389192,0.0,icsd-25542,"{20: 1, 1: 1, 35: 1}","[1, 20, 35]",11201351,Ca1H1Br1
CaHI,mp-24204,3.5271000000000003,1.69700507,0.0,icsd-25545,"{20: 1, 1: 1, 53: 1}","[1, 20, 53]",11201531,Ca1H1I1
Ca5Ge3H,mp-643912,0.0,3.32548834,0.0,icsd-93705,"{20: 5, 32: 3, 1: 1}","[1, 20, 32]",11205323,Ca5Ge3H1
Ca5Sn3H,mp-1106280,0.0,4.02138812,0.0,icsd-165192,"{20: 5, 50: 3, 1: 1}","[1, 20, 50]",11205503,Ca5Sn3H1
Ca7(H6Cl)2,mp-984055,3.6946,1.28771908,0.0,icsd-420927,"{20: 7, 1: 12, 17: 2}","[1, 17, 20]",112172207,Ca7H12Cl2
Ca4(H4Rh)3,mp-697126,0.0,4.16752833,0.0,icsd-50518,"{20: 4, 1: 12, 45: 3}","[1, 20, 45]",112204453,Ca4H12Rh3
Ca2HN,mp-24119,1.6356000000000002,2.34437984,0.0,icsd-79317,"{20: 2, 1: 1, 7: 1}","[1, 7, 20]",1171202,Ca2H1N1
Ca6Cr2HN6,mp-1104786,0.0,4.60270638,0.0,icsd-281462,"{20: 6, 24: 2, 1: 1, 7: 6}","[1, 7, 20, 24]",1176206242,Ca6Cr2H1N6
CaHClO,mp-642725,5.3294999999999995,0.00579064,0.0,icsd-62041,"{20: 1, 1: 1, 17: 1, 8: 1}","[1, 8, 17, 20]",1181171201,Ca1H1Cl1O1
Ca5P3HO13,mp-41472,5.1992,1.92744131,0.0,icsd-289993,"{20: 5, 15: 3, 1: 1, 8: 13}","[1, 8, 15, 20]",11813153205,Ca5P3H1O13
CaPHO4,mp-24390,5.4321,1.59932114,0.0,icsd-87196,"{20: 1, 15: 1, 1: 1, 8: 4}","[1, 8, 15, 20]",1184151201,Ca1P1H1O4
CaZnAsHO5,mp-24018,2.6373999999999995,1.84758764,0.0,icsd-63285,"{20: 1, 30: 1, 33: 1, 1: 1, 8: 5}","[1, 8, 20, 30, 33]",1185201301331,Ca1Zn1As1H1O5
CaFe2P2HO9,mp-1200109,1.2012999999999998,2.89132455,0.0,icsd-100143,"{20: 1, 26: 2, 15: 2, 1: 1, 8: 9}","[1, 8, 15, 20, 26]",1189152201262,Ca1Fe2P2H1O9
CaAs2HF13,mp-778977,4.6190999999999995,-3.22743409,0.0,icsd-414129,"{20: 1, 33: 2, 1: 1, 9: 13}","[1, 9, 20, 33]",11913201332,Ca1As2H1F13
CaH2,mp-23713,3.0275,0.8916838,0.0,icsd-261185,"{20: 1, 1: 2}","[1, 20]",12201,Ca1H2
Ca3SnH2,mp-984605,0.11179999999999968,3.33532382,0.0,icsd-165615,"{20: 3, 50: 1, 1: 2}","[1, 20, 50]",12203501,Ca3Sn1H2
CaH24(BrN4)2,mp-1196086,3.9677,1.72557253,0.0,icsd-427511,"{20: 1, 1: 24, 35: 2, 7: 8}","[1, 7, 20, 35]",12478201352,Ca1H24Br2N8
CaH24(IN4)2,mp-1194766,3.5261,1.80778578,0.0,icsd-427990,"{20: 1, 1: 24, 53: 2, 7: 8}","[1, 7, 20, 53]",12478201532,Ca1H24I2N8
NaCaMn2P3(HO6)2,mp-1204868,3.5058999999999996,2.54389134,0.0,icsd-166097,"{11: 1, 20: 1, 25: 2, 15: 3, 1: 2, 8: 12}","[1, 8, 11, 15, 20, 25]",12812111153201252,Na1Ca1Mn2P3H2O12
CaP4(HO6)2,mp-697657,5.6369,-0.25228473,0.0,icsd-82359,"{20: 1, 15: 4, 1: 2, 8: 12}","[1, 8, 15, 20]",12812154201,Ca1P4H2O12
Ca(HO)2,mp-23879,4.1119,-0.374246,0.0,icsd-34240,"{20: 1, 1: 2, 8: 2}","[1, 8, 20]",1282201,Ca1H2O2
CaTi2(HO3)2,mp-709021,2.7773,1.36836137,0.0,icsd-98137,"{20: 1, 22: 2, 1: 2, 8: 6}","[1, 8, 20, 22]",1286201222,Ca1Ti2H2O6
CaP2H2O7,mp-643898,5.7059999999999995,-0.00907049,0.0,icsd-91818,"{20: 1, 15: 2, 1: 2, 8: 7}","[1, 8, 15, 20]",1287152201,Ca1P2H2O7
BaCaP2(HO4)2,mp-733968,5.327,1.35740522,0.0,icsd-89462,"{56: 1, 20: 1, 15: 2, 1: 2, 8: 8}","[1, 8, 15, 20, 56]",1288152201561,Ba1Ca1P2H2O8
CaSb2H2F14,mp-780667,4.6983999999999995,1.55429685,0.0,icsd-412894,"{20: 1, 51: 2, 1: 2, 9: 14}","[1, 9, 20, 51]",12914201512,Ca1Sb2H2F14
CaH2F4,mp-1104135,7.6467,-2.70008931,0.0,icsd-419144,"{20: 1, 1: 2, 9: 4}","[1, 9, 20]",1294201,Ca1H2F4
CaH3Pd,mp-1207169,0.0,4.95297922,0.0,pf-34890,"{20: 1, 1: 3, 46: 1}","[1, 20, 46]",13201461,Ca1H3Pd1
CaH3NO5,mp-722900,3.4120999999999997,2.31399657,0.0,icsd-36558,"{20: 1, 1: 3, 7: 1, 8: 5}","[1, 7, 8, 20]",137185201,Ca1H3N1O5
Cs2CaH4,mp-697133,3.0097,-0.09094951,0.0,icsd-261358,"{55: 2, 20: 1, 1: 4}","[1, 20, 55]",14201552,Cs2Ca1H4
CaP6(HN3)4,mp-1195714,4.1792,7.94220475,0.0,icsd-427953,"{20: 1, 15: 6, 1: 4, 7: 12}","[1, 7, 15, 20]",14712156201,Ca1P6H4N12
CaH4NClO5,mp-720586,3.5639000000000003,-1.29325403,0.0,icsd-1532,"{20: 1, 1: 4, 7: 1, 17: 1, 8: 5}","[1, 7, 8, 17, 20]",147185171201,Ca1H4N1Cl1O5
Ca(H2N)2,mp-644307,2.6985,0.52171418,0.0,icsd-89572,"{20: 1, 1: 4, 7: 2}","[1, 7, 20]",1472201,Ca1H4N2
Ca2MnAs2(H2O5)2,mp-23716,2.2674,2.08112068,0.0,icsd-156223,"{20: 2, 25: 1, 33: 2, 1: 4, 8: 10}","[1, 8, 20, 25, 33]",14810202251332,Ca2Mn1As2H4O10
CaP2(HO)4,mp-24130,5.5901,-0.45201613,0.0,icsd-44413,"{20: 1, 15: 2, 1: 4, 8: 4}","[1, 8, 15, 20]",1484152201,Ca1P2H4O4
CaReH4ClO6,mp-866312,3.1878,-0.75699012,0.0,icsd-240993,"{20: 1, 75: 1, 1: 4, 17: 1, 8: 6}","[1, 8, 17, 20, 75]",1486171201751,Ca1Re1H4Cl1O6
CaPS3,mp-9789,3.0848000000000004,3.00210138,0.0,icsd-405192,"{20: 1, 15: 1, 16: 3}","[15, 16, 20]",151163201,Ca1P1S3
Ca3PCl3,mp-29342,1.8419000000000003,2.67403279,0.0,icsd-202075,"{20: 3, 15: 1, 17: 3}","[15, 17, 20]",151173203,Ca3P1Cl3
CaP,mp-1345,0.3443000000000005,4.23122084,0.0,icsd-83352,"{20: 1, 15: 1}","[15, 20]",151201,Ca1P1
CaCuP,mp-8432,0.0,6.01613964,0.0,icsd-49740,"{20: 1, 29: 1, 15: 1}","[15, 20, 29]",151201291,Ca1Cu1P1
CaPSe3,mp-11007,1.9014000000000002,2.58332813,0.0,icsd-412765,"{20: 1, 15: 1, 34: 3}","[15, 20, 34]",151201343,Ca1P1Se3
CaAgP,mp-12277,0.007000000000000561,4.92405381,0.0,icsd-10016,"{20: 1, 47: 1, 15: 1}","[15, 20, 47]",151201471,Ca1Ag1P1
CaPPt,mp-28339,0.0,5.7879427,0.0,icsd-60826,"{20: 1, 15: 1, 78: 1}","[15, 20, 78]",151201781,Ca1P1Pt1
CaPAu,mp-10677,0.0,5.48381691,0.0,icsd-52661,"{20: 1, 15: 1, 79: 1}","[15, 20, 79]",151201791,Ca1P1Au1
Ca2PI,mp-23040,1.6997000000000004,3.35873213,0.0,icsd-166533,"{20: 2, 15: 1, 53: 1}","[15, 20, 53]",151202531,Ca2P1I1
Ca3PI3,mp-27272,2.1548,2.68536959,0.0,icsd-9026,"{20: 3, 15: 1, 53: 3}","[15, 20, 53]",151203533,Ca3P1I3
Ca5P12Rh19,mp-10582,0.0,7.63184775,0.0,icsd-412128,"{20: 5, 15: 12, 45: 19}","[15, 20, 45]",15122054519,Ca5P12Rh19
Ca5P12Ir19,mp-18360,0.0,9.18150052,0.0,icsd-412129,"{20: 5, 15: 12, 77: 19}","[15, 20, 77]",15122057719,Ca5P12Ir19
Ca(FeP)2,mp-5597,0.0,6.87861488,0.0,icsd-54406,"{20: 1, 26: 2, 15: 2}","[15, 20, 26]",152201262,Ca1Fe2P2
Ca(CoP)2,mp-3210,0.0,7.14613761,0.0,icsd-85892,"{20: 1, 27: 2, 15: 2}","[15, 20, 27]",152201272,Ca1Co2P2
Ca(Cu2P)2,mp-22295,0.0,7.39112351,0.0,icsd-62553,"{20: 1, 29: 4, 15: 2}","[15, 20, 29]",152201294,Ca1Cu4P2
Ca(ZnP)2,mp-9569,0.875,4.1873473,0.0,icsd-100062,"{20: 1, 30: 2, 15: 2}","[15, 20, 30]",152201302,Ca1Zn2P2
Ca(GaP)2,mp-1078849,0.1778000000000004,4.72201873,0.0,icsd-422525,"{20: 1, 31: 2, 15: 2}","[15, 20, 31]",152201312,Ca1Ga2P2
Ca(PRu)2,mp-5157,0.0,7.52849473,0.0,icsd-61125,"{20: 1, 15: 2, 44: 2}","[15, 20, 44]",152201442,Ca1P2Ru2
Ca(PRh)2,mp-8580,0.0,7.49547554,0.0,icsd-50185,"{20: 1, 15: 2, 45: 2}","[15, 20, 45]",152201452,Ca1P2Rh2
Ca(PPd)2,mp-6926,0.0,6.50603132,0.0,icsd-188176,"{20: 1, 15: 2, 46: 2}","[15, 20, 46]",152201462,Ca1P2Pd2
Ca(CdP)2,mp-9570,0.8195999999999999,3.61950738,0.0,icsd-619198,"{20: 1, 48: 2, 15: 2}","[15, 20, 48]",152201482,Ca1Cd2P2
Ca(InP)2,mp-1079772,0.4085000000000001,5.7786027,0.0,icsd-260562,"{20: 1, 49: 2, 15: 2}","[15, 20, 49]",152201492,Ca1In2P2
Ca(PIr)2,mp-11168,0.49429999999999996,6.92787877,0.0,icsd-95756,"{20: 1, 15: 2, 77: 2}","[15, 20, 77]",152201772,Ca1P2Ir2
Ca2CdP2,mp-1078908,1.2927000000000004,3.41336496,0.0,icsd-422580,"{20: 2, 48: 1, 15: 2}","[15, 20, 48]",152202481,Ca2Cd1P2
CaP3,mp-9122,0.0049000000000001265,5.94467808,0.0,icsd-74479,"{20: 1, 15: 3}","[15, 20]",153201,Ca1P3
Ca2Zn2CuP3,mp-571306,0.27780000000000005,5.22045187,0.0,icsd-89517,"{20: 2, 30: 2, 29: 1, 15: 3}","[15, 20, 29, 30]",153202291302,Ca2Zn2Cu1P3
Ca3InP3,mp-614572,0.9918000000000005,4.35266541,0.0,icsd-60125,"{20: 3, 49: 1, 15: 3}","[15, 20, 49]",153203491,Ca3In1P3
Ca3Zn2(CuP2)2,mp-569617,0.042899999999999494,5.43957067,0.0,icsd-89515,"{20: 3, 30: 2, 29: 2, 15: 4}","[15, 20, 29, 30]",154203292302,Ca3Zn2Cu2P4
Ca3(GaP2)2,mp-1189986,0.9434000000000005,4.10304224,0.0,icsd-423781,"{20: 3, 31: 2, 15: 4}","[15, 20, 31]",154203312,Ca3Ga2P4
Ca3(GeP2)2,mp-17817,0.7361999999999997,3.85469279,0.0,icsd-41181,"{20: 3, 32: 2, 15: 4}","[15, 20, 32]",154203322,Ca3Ge2P4
Ca2Cu6P5,mp-28660,0.0,7.42204491,0.0,icsd-69493,"{20: 2, 29: 6, 15: 5}","[15, 20, 29]",155202296,Ca2Cu6P5
Ca5(PPd)6,mp-667294,0.0,5.20347796,0.0,icsd-79096,"{20: 5, 15: 6, 46: 6}","[15, 20, 46]",156205466,Ca5P6Pd6
CaP2H5NO7,mp-1214543,5.2103,0.16414893,0.0,pf-6004,"{20: 1, 15: 2, 1: 5, 7: 1, 8: 7}","[1, 7, 8, 15, 20]",157187152201,Ca1P2H5N1O7
Ca2Co12P7,mp-10923,0.0,7.67235621,0.0,icsd-94410,"{20: 2, 27: 12, 15: 7}","[15, 20, 27]",1572022712,Ca2Co12P7
Ca4P7Ir8,mp-31233,0.0,7.43987365,0.0,icsd-413847,"{20: 4, 15: 7, 77: 8}","[15, 20, 77]",157204778,Ca4P7Ir8
Ca5P8,mp-28879,1.1418000000000004,3.96668551,0.0,icsd-74854,"{20: 5, 15: 8}","[15, 20]",158205,Ca5P8
NaCaH6Ir,mp-1180133,3.4213,0.14746808,0.0,icsd-262195,"{11: 1, 20: 1, 1: 6, 77: 1}","[1, 11, 20, 77]",16111201771,Na1Ca1H6Ir1
CaS,mp-1672,2.3819,2.66171321,0.0,icsd-619534,"{20: 1, 16: 1}","[16, 20]",161201,Ca1S1
Ca2FeH6,mp-1205964,1.5002999999999997,2.1178021,0.0,icsd-619266,"{20: 2, 26: 1, 1: 6}","[1, 20, 26]",16202261,Ca2Fe1H6
Ca2H6Ru,mp-1079896,2.4473,1.63560575,0.0,icsd-160505,"{20: 2, 1: 6, 44: 1}","[1, 20, 44]",16202441,Ca2H6Ru1
Ca2H6Os,mp-1207196,2.7001,1.72985672,0.0,icsd-619346,"{20: 2, 1: 6, 76: 1}","[1, 20, 76]",16202761,Ca2H6Os1
Ca(ScS2)2,mp-17597,1.2862999999999998,3.95506285,0.0,icsd-27181,"{20: 1, 21: 2, 16: 4}","[16, 20, 21]",164201212,Ca1Sc2S4
Ca(GaS2)2,mp-14423,2.7470999999999997,2.69081642,0.0,icsd-46017,"{20: 1, 31: 2, 16: 4}","[16, 20, 31]",164201312,Ca1Ga2S4
Ca(YS2)2,mp-18642,1.5361000000000002,3.05978268,0.0,icsd-80294,"{20: 1, 39: 2, 16: 4}","[16, 20, 39]",164201392,Ca1Y2S4
Ca(HoS2)2,mp-1194276,1.5526999999999997,3.0106416,0.0,icsd-619369,"{20: 1, 67: 2, 16: 4}","[16, 20, 67]",164201672,Ca1Ho2S4
Ca(ErS2)2,mp-1194059,1.5692000000000004,3.02589171,0.0,icsd-619253,"{20: 1, 68: 2, 16: 4}","[16, 20, 68]",164201682,Ca1Er2S4
Ca(TmS2)2,mp-1194132,1.5678999999999994,3.13495103,0.0,icsd-619554,"{20: 1, 69: 2, 16: 4}","[16, 20, 69]",164201692,Ca1Tm2S4
Ca(LuS2)2,mp-505362,1.5804,3.12143716,0.0,icsd-200013,"{20: 1, 71: 2, 16: 4}","[16, 20, 71]",164201712,Ca1Lu2S4
Ca2GeS4,mp-540773,2.5311,1.78834108,0.0,icsd-23416,"{20: 2, 32: 1, 16: 4}","[16, 20, 32]",164202321,Ca2Ge1S4
Ca2SnS4,mp-866503,2.2605,2.04075912,0.0,icsd-429695,"{20: 2, 50: 1, 16: 4}","[16, 20, 50]",164202501,Ca2Sn1S4
Ca2Sb2S5,mp-29284,1.4826000000000001,3.81027943,0.0,icsd-201044,"{20: 2, 51: 2, 16: 5}","[16, 20, 51]",165202512,Ca2Sb2S5
RbCa(H2N)3,mp-696329,1.8986,0.22563453,0.0,icsd-14014,"{37: 1, 20: 1, 1: 6, 7: 3}","[1, 7, 20, 37]",1673201371,Rb1Ca1H6N3
Ba2CaP4(H3O8)2,mp-758007,5.4657,0.65971602,0.0,icsd-280058,"{56: 2, 20: 1, 15: 4, 1: 6, 8: 16}","[1, 8, 15, 20, 56]",16816154201562,Ba2Ca1P4H6O16
CaH6(SO4)4,mp-1193655,5.8984000000000005,-1.63598882,0.0,icsd-85073,"{20: 1, 1: 6, 16: 4, 8: 16}","[1, 8, 16, 20]",16816164201,Ca1H6S4O16
Ca2Mn3P3H6O17,mp-1182836,0.8662000000000001,1.94296166,0.0,icsd-89712,"{20: 2, 25: 3, 15: 3, 1: 6, 8: 17}","[1, 8, 15, 20, 25]",16817153202253,Ca2Mn3P3H6O17
Ca(Mo3S4)2,mp-1104194,0.0,5.6547588,0.0,icsd-619422,"{20: 1, 42: 6, 16: 8}","[16, 20, 42]",168201426,Ca1Mo6S8
CaAs2H6F18,mp-758814,5.005,-3.61780101,0.0,icsd-414130,"{20: 1, 33: 2, 1: 6, 9: 18}","[1, 9, 20, 33]",16918201332,Ca1As2H6F18
CsCaTa6Cl18,mp-1213700,0.16159999999999997,2.76695641,0.0,pf-41878,"{55: 1, 20: 1, 73: 6, 17: 18}","[17, 20, 55, 73]",1718201551736,Cs1Ca1Ta6Cl18
CaCl2,mp-571642,5.5987,-0.48880543,0.0,icsd-56769,"{20: 1, 17: 2}","[17, 20]",172201,Ca1Cl2
CsCaCl3,mp-1206863,5.3402,-0.54383172,0.0,pf-12499,"{55: 1, 20: 1, 17: 3}","[17, 20, 55]",173201551,Cs1Ca1Cl3
Ca3AsCl3,mp-28069,1.8439,2.49027457,0.0,icsd-36002,"{20: 3, 33: 1, 17: 3}","[17, 20, 33]",173203331,Ca3As1Cl3
Cs2CaCl4,mp-1025185,5.034,-0.97254212,0.0,pf-6017,"{55: 2, 20: 1, 17: 4}","[17, 20, 55]",174201552,Cs2Ca1Cl4
Cs3Ca2Cl7,mp-1213703,5.174799999999999,-1.00671269,0.0,pf-16465,"{55: 3, 20: 2, 17: 7}","[17, 20, 55]",177202553,Cs3Ca2Cl7
CaNpH7O8,mp-1195107,1.5401,1.64880707,0.0,icsd-429215,"{20: 1, 93: 1, 1: 7, 8: 8}","[1, 8, 20, 93]",1788201931,Ca1Np1H7O8
CaH8(ClO6)2,mp-1204240,5.2201,-1.25604219,0.0,icsd-237719,"{20: 1, 1: 8, 17: 2, 8: 12}","[1, 8, 17, 20]",18812172201,Ca1H8Cl2O12
CaH8(BrO6)2,mp-1182712,3.1367000000000003,-1.72421043,0.0,icsd-73400,"{20: 1, 1: 8, 35: 2, 8: 12}","[1, 8, 20, 35]",18812201352,Ca1H8Br2O12
CaNp(HO)9,mp-1195052,1.4339,1.37087396,0.0,icsd-429216,"{20: 1, 93: 1, 1: 9, 8: 9}","[1, 8, 20, 93]",1989201931,Ca1Np1H9O9
Ca,mp-45,0.0,2.00973745,0.0,icsd-44727,{20: 1},[20],201,Ca1
Ca11GaSb9,mp-1214384,1.0841000000000003,5.36613308,0.0,pf-36910,"{20: 11, 31: 1, 51: 9}","[20, 31, 51]",2011311519,Ca11Ga1Sb9
Ca11InSb9,mp-29722,0.8375000000000004,4.77922415,0.0,icsd-42371,"{20: 11, 49: 1, 51: 9}","[20, 49, 51]",2011491519,Ca11In1Sb9
Ca11Sb10,mp-12241,0.0,4.90210536,0.0,icsd-433,"{20: 11, 51: 10}","[20, 51]",20115110,Ca11Sb10
Ca11Bi10,mp-27298,0.0,4.39327152,0.0,icsd-434,"{20: 11, 83: 10}","[20, 83]",20118310,Ca11Bi10
Ca(MnGe)2,mp-19824,0.0,5.14572285,0.0,icsd-80505,"{20: 1, 25: 2, 32: 2}","[20, 25, 32]",201252322,Ca1Mn2Ge2
Ca(FeAs)2,mp-1068300,0.0,5.81237536,0.0,icsd-182276,"{20: 1, 26: 2, 33: 2}","[20, 26, 33]",201262332,Ca1Fe2As2
Ca(FeSb3)4,mp-13464,0.0,7.5712486,0.0,icsd-42961,"{20: 1, 26: 4, 51: 12}","[20, 26, 51]",2012645112,Ca1Fe4Sb12
CaGa3Co2,mp-1101789,0.0,4.05551027,0.0,icsd-619207,"{20: 1, 31: 3, 27: 2}","[20, 27, 31]",201272313,Ca1Ga3Co2
Ca(CoGe)2,mp-4259,0.0,5.5089347,0.0,icsd-406,"{20: 1, 27: 2, 32: 2}","[20, 27, 32]",201272322,Ca1Co2Ge2
Ca(CoAs)2,mp-569298,0.0,5.74658275,0.0,icsd-609899,"{20: 1, 27: 2, 33: 2}","[20, 27, 33]",201272332,Ca1Co2As2
CaCu,mp-585949,0.0,3.57283646,0.0,icsd-58881,"{20: 1, 29: 1}","[20, 29]",201291,Ca1Cu1
CaCuGe,mp-21779,0.0,4.26144465,0.0,icsd-408580,"{20: 1, 29: 1, 32: 1}","[20, 29, 32]",201291321,Ca1Cu1Ge1
CaCuAs,mp-4120,0.0,5.37496287,0.0,icsd-49741,"{20: 1, 29: 1, 33: 1}","[20, 29, 33]",201291331,Ca1Cu1As1
CaCuSn,mp-570879,0.0,5.80994532,0.0,icsd-417715,"{20: 1, 29: 1, 50: 1}","[20, 29, 50]",201291501,Ca1Cu1Sn1
CaCuSb,mp-5910,0.0,6.0599396,0.0,icsd-659589,"{20: 1, 29: 1, 51: 1}","[20, 29, 51]",201291511,Ca1Cu1Sb1
Ca(CuGe)2,mp-4441,0.0,5.85925787,0.0,icsd-81757,"{20: 1, 29: 2, 32: 2}","[20, 29, 32]",201292322,Ca1Cu2Ge2
Ca(CuSn)2,mp-568974,0.0,6.58693145,0.0,icsd-417717,"{20: 1, 29: 2, 50: 2}","[20, 29, 50]",201292502,Ca1Cu2Sn2
Ca(Cu2As)2,mp-28006,0.0,6.37020889,0.0,icsd-32619,"{20: 1, 29: 4, 33: 2}","[20, 29, 33]",201294332,Ca1Cu4As2
CaCu5,mp-1882,0.0,5.55275908,0.0,icsd-619214,"{20: 1, 29: 5}","[20, 29]",201295,Ca1Cu5
CaZn,mp-30483,0.0,2.32093554,0.0,icsd-184361,"{20: 1, 30: 1}","[20, 30]",201301,Ca1Zn1
CaZn11,mp-18567,0.0,3.07531772,0.0,icsd-184364,"{20: 1, 30: 11}","[20, 30]",2013011,Ca1Zn11
CaZnGe,mp-16263,0.0,4.01204886,0.0,icsd-52772,"{20: 1, 30: 1, 32: 1}","[20, 30, 32]",201301321,Ca1Zn1Ge1
CaZnPd,mp-1213948,0.0,3.40862927,0.0,pf-35201,"{20: 1, 30: 1, 46: 1}","[20, 30, 46]",201301461,Ca1Zn1Pd1
CaZnSn,mp-31160,0.0,5.26620986,0.0,icsd-106358,"{20: 1, 30: 1, 50: 1}","[20, 30, 50]",201301501,Ca1Zn1Sn1
CaZn2,mp-1725,0.0,2.69810837,0.0,icsd-184362,"{20: 1, 30: 2}","[20, 30]",201302,Ca1Zn2
Ca(ZnAs)2,mp-9571,0.3873000000000002,3.57802312,0.0,icsd-100064,"{20: 1, 30: 2, 33: 2}","[20, 30, 33]",201302332,Ca1Zn2As2
Ca(ZnSb)2,mp-7429,0.0,4.49677127,0.0,icsd-12150,"{20: 1, 30: 2, 51: 2}","[20, 30, 51]",201302512,Ca1Zn2Sb2
CaZn5,mp-1734,0.0,2.82309759,0.0,icsd-418614,"{20: 1, 30: 5}","[20, 30]",201305,Ca1Zn5
CaGa,mp-6914,0.0,2.85631431,0.0,icsd-419100,"{20: 1, 31: 1}","[20, 31]",201311,Ca1Ga1
CaGaGe,mp-541310,0.0,4.29376952,0.0,icsd-66002,"{20: 1, 31: 1, 32: 1}","[20, 31, 32]",201311321,Ca1Ga1Ge1
CaGaPt,mp-31152,0.0,4.49883097,0.0,icsd-106340,"{20: 1, 31: 1, 78: 1}","[20, 31, 78]",201311781,Ca1Ga1Pt1
CaGaAu,mp-11811,0.0,3.92989867,0.0,icsd-106273,"{20: 1, 31: 1, 79: 1}","[20, 31, 79]",201311791,Ca1Ga1Au1
CaGaAu3,mp-567485,0.0,4.62442621,0.0,icsd-249634,"{20: 1, 31: 1, 79: 3}","[20, 31, 79]",201311793,Ca1Ga1Au3
CaGa2,mp-11284,0.0,3.79064836,0.0,icsd-58891,"{20: 1, 31: 2}","[20, 31]",201312,Ca1Ga2
Ca(GaAs)2,mp-1070099,0.03530000000000033,3.90141683,0.0,icsd-422526,"{20: 1, 31: 2, 33: 2}","[20, 31, 33]",201312332,Ca1Ga2As2
Ca(GaSe2)2,mp-13873,1.9773,1.97668889,0.0,icsd-24387,"{20: 1, 31: 2, 34: 4}","[20, 31, 34]",201312344,Ca1Ga2Se4
CaGa4,mp-1976,0.0,3.86312987,0.0,icsd-619273,"{20: 1, 31: 4}","[20, 31]",201314,Ca1Ga4
CaGe,mp-2360,0.0,4.57669187,0.0,icsd-619303,"{20: 1, 32: 1}","[20, 32]",201321,Ca1Ge1
SrCaGe,mp-12418,0.4356,2.93670991,0.0,icsd-172006,"{38: 1, 20: 1, 32: 1}","[20, 32, 38]",201321381,Sr1Ca1Ge1
CaAgGe,mp-1200102,0.0,4.15815258,0.0,icsd-421236,"{20: 1, 47: 1, 32: 1}","[20, 32, 47]",201321471,Ca1Ag1Ge1
CaCdGe,mp-16258,0.0,3.99206577,0.0,icsd-52750,"{20: 1, 48: 1, 32: 1}","[20, 32, 48]",201321481,Ca1Cd1Ge1
BaCaGe,mp-16252,0.1812999999999998,2.93059898,0.0,icsd-52681,"{56: 1, 20: 1, 32: 1}","[20, 32, 56]",201321561,Ba1Ca1Ge1
CaGePt,mp-31153,0.0,5.41711467,0.0,icsd-602354,"{20: 1, 32: 1, 78: 1}","[20, 32, 78]",201321781,Ca1Ge1Pt1
CaGeAu,mp-21710,0.0,4.39086803,0.0,icsd-85836,"{20: 1, 32: 1, 79: 1}","[20, 32, 79]",201321791,Ca1Ge1Au1
CaGe2,mp-567456,0.0,4.72183626,0.0,icsd-185658,"{20: 1, 32: 2}","[20, 32]",201322,Ca1Ge2
Ca(GeRu)2,mp-19791,0.0,5.81559477,0.0,icsd-52761,"{20: 1, 32: 2, 44: 2}","[20, 32, 44]",201322442,Ca1Ge2Ru2
Ca(GeRh)2,mp-16261,0.0,5.82941701,0.0,icsd-52760,"{20: 1, 32: 2, 45: 2}","[20, 32, 45]",201322452,Ca1Ge2Rh2
Ca(GePd)2,mp-16260,0.0,4.95371109,0.0,icsd-52759,"{20: 1, 32: 2, 46: 2}","[20, 32, 46]",201322462,Ca1Ge2Pd2
Ca(GeIr)2,mp-16259,0.0,6.84354254,0.0,icsd-52755,"{20: 1, 32: 2, 77: 2}","[20, 32, 77]",201322772,Ca1Ge2Ir2
CaGe2Pt,mp-1105802,0.0,5.69349931,0.0,icsd-600498,"{20: 1, 32: 2, 78: 1}","[20, 32, 78]",201322781,Ca1Ge2Pt1
Ca(GePt)2,mp-1183528,0.0,6.05682691,0.0,icsd-619327,"{20: 1, 32: 2, 78: 2}","[20, 32, 78]",201322782,Ca1Ge2Pt2
CaAs,mp-888,0.0,3.41706237,0.0,icsd-26263,"{20: 1, 33: 1}","[20, 33]",201331,Ca1As1
RbCaAs,mp-9845,1.2985,1.18464594,0.0,icsd-409177,"{37: 1, 20: 1, 33: 1}","[20, 33, 37]",201331371,Rb1Ca1As1
CaAsPd,mp-28763,0.16080000000000005,4.05014824,0.0,icsd-72349,"{20: 1, 33: 1, 46: 1}","[20, 33, 46]",201331461,Ca1As1Pd1
CaAgAs,mp-5615,0.02069999999999972,4.38115227,0.0,icsd-10017,"{20: 1, 47: 1, 33: 1}","[20, 33, 47]",201331471,Ca1Ag1As1
CaAsPt,mp-28340,0.0,4.67716119,0.0,icsd-60828,"{20: 1, 33: 1, 78: 1}","[20, 33, 78]",201331781,Ca1As1Pt1
CaAsAu,mp-3927,0.0,4.69606772,0.0,icsd-404725,"{20: 1, 33: 1, 79: 1}","[20, 33, 79]",201331791,Ca1As1Au1
Ca13(Ge11Au25)2,mp-1203630,0.0,5.39708207,0.0,icsd-260920,"{20: 13, 32: 22, 79: 50}","[20, 32, 79]",201332227950,Ca13Ge22Au50
Ca(AsRu)2,mp-5610,0.0,6.3342492,0.0,icsd-609914,"{20: 1, 33: 2, 44: 2}","[20, 33, 44]",201332442,Ca1As2Ru2
Ca(AsPd)2,mp-5166,0.0,5.48564101,0.0,icsd-190703,"{20: 1, 33: 2, 46: 2}","[20, 33, 46]",201332462,Ca1As2Pd2
Ca(CdAs)2,mp-7067,0.2163999999999997,3.04143828,0.0,icsd-100065,"{20: 1, 48: 2, 33: 2}","[20, 33, 48]",201332482,Ca1Cd2As2
CaAs3,mp-1900,0.0,4.54491356,0.0,icsd-86400,"{20: 1, 33: 3}","[20, 33]",201333,Ca1As3
Ca(As2Rh3)2,mp-16044,0.0,6.90937137,0.0,icsd-89612,"{20: 1, 33: 4, 45: 6}","[20, 33, 45]",201334456,Ca1As4Rh6
CaSe,mp-1415,2.0728000000000004,2.43012507,0.0,icsd-187695,"{20: 1, 34: 1}","[20, 34]",201341,Ca1Se1
CaBr2,mp-22888,4.5304,-0.51684408,0.0,icsd-56766,"{20: 1, 35: 2}","[20, 35]",201352,Ca1Br2
CaInBr3,mp-28534,2.8725,0.8448708,0.0,icsd-54138,"{20: 1, 49: 1, 35: 3}","[20, 35, 49]",201353491,Ca1In1Br3
CsCaBr3,mp-30056,4.3923,-0.59898138,0.0,icsd-77242,"{55: 1, 20: 1, 35: 3}","[20, 35, 55]",201353551,Cs1Ca1Br3
CaTlBr3,mp-1205521,3.7234,0.19042115,0.0,pf-33009,"{20: 1, 81: 1, 35: 3}","[20, 35, 81]",201353811,Ca1Tl1Br3