formula,material_id,band_gap,efermi,energy_above_hull,database_IDs,comp_atoms,sorted_keys_comp_atoms,comp_number,new_formula
Ba2CaUO6,mp-557448,2.1948,2.66130363,0.0,icsd-246110,"{56: 2, 20: 1, 92: 1, 8: 6}","[8, 20, 56, 92]",86201562921,Ba2Ca1U1O6
CaTa2O6,mp-18229,3.4738999999999995,1.64389562,0.0,icsd-24091,"{20: 1, 73: 2, 8: 6}","[8, 20, 73]",86201732,Ca1Ta2O6
Ca2ScNbO6,mp-1214125,3.1457000000000006,5.33480551,0.0,pf-7259,"{20: 2, 21: 1, 41: 1, 8: 6}","[8, 20, 21, 41]",86202211411,Ca2Sc1Nb1O6
Ca2ScSbO6,mp-1189528,3.6317999999999997,3.38052213,0.0,icsd-262995,"{20: 2, 21: 1, 51: 1, 8: 6}","[8, 20, 21, 51]",86202211511,Ca2Sc1Sb1O6
Ca2ScTaO6,mp-1214081,3.7337999999999996,5.99498176,0.0,pf-17727,"{20: 2, 21: 1, 73: 1, 8: 6}","[8, 20, 21, 73]",86202211731,Ca2Sc1Ta1O6
Ca2ScOsO6,mp-1105395,0.0,4.5232736,0.0,icsd-291608,"{20: 2, 21: 1, 76: 1, 8: 6}","[8, 20, 21, 76]",86202211761,Ca2Sc1Os1O6
Ca2VBiO6,mp-554381,3.0645000000000002,2.20731671,0.0,icsd-50939,"{20: 2, 23: 1, 83: 1, 8: 6}","[8, 20, 23, 83]",86202231831,Ca2V1Bi1O6
Ca2NbCrO6,mp-1214115,2.7637000000000005,2.9883217,0.0,pf-12919,"{20: 2, 41: 1, 24: 1, 8: 6}","[8, 20, 24, 41]",86202241411,Ca2Nb1Cr1O6
Ca2TaCrO6,mp-1214103,2.7922000000000002,3.14902149,0.0,pf-23805,"{20: 2, 73: 1, 24: 1, 8: 6}","[8, 20, 24, 73]",86202241731,Ca2Ta1Cr1O6
Ca2MnWO6,mp-19108,2.1846999999999994,3.49235459,0.0,icsd-51616,"{20: 2, 25: 1, 74: 1, 8: 6}","[8, 20, 25, 74]",86202251741,Ca2Mn1W1O6
Ca2NbFeO6,mp-1214121,2.0870999999999995,2.59932177,0.0,pf-39498,"{20: 2, 41: 1, 26: 1, 8: 6}","[8, 20, 26, 41]",86202261411,Ca2Nb1Fe1O6
Ca2FeSbO6,mp-20431,2.1517,3.6498193,0.0,icsd-83473,"{20: 2, 26: 1, 51: 1, 8: 6}","[8, 20, 26, 51]",86202261511,Ca2Fe1Sb1O6
Ca2FeReO6,mp-31763,0.0,4.66076416,0.0,icsd-150696,"{20: 2, 26: 1, 75: 1, 8: 6}","[8, 20, 26, 75]",86202261751,Ca2Fe1Re1O6
Ca2CoTeO6,mp-552051,2.0668,4.02876594,0.0,icsd-153001,"{20: 2, 27: 1, 52: 1, 8: 6}","[8, 20, 27, 52]",86202271521,Ca2Co1Te1O6
Ca2CoWO6,mp-19161,0.0,4.25261239,0.0,icsd-98732,"{20: 2, 27: 1, 74: 1, 8: 6}","[8, 20, 27, 74]",86202271741,Ca2Co1W1O6
Ca2BiAsO6,mp-557070,3.2393,2.441666,0.0,icsd-91475,"{20: 2, 83: 1, 33: 1, 8: 6}","[8, 20, 33, 83]",86202331831,Ca2Bi1As1O6
Ca2TmRuO6,mp-1214117,0.28600000000000003,3.46170664,0.0,pf-13405,"{20: 2, 69: 1, 44: 1, 8: 6}","[8, 20, 44, 69]",86202441691,Ca2Tm1Ru1O6
Ca3ScCoO6,mp-561991,0.8569,4.77819848,0.0,icsd-245503,"{20: 3, 21: 1, 27: 1, 8: 6}","[8, 20, 21, 27]",86203211271,Ca3Sc1Co1O6
Ca3TeO6,mp-5279,3.2598,3.11991914,0.0,icsd-35085,"{20: 3, 52: 1, 8: 6}","[8, 20, 52]",86203521,Ca3Te1O6
Ca3ReO6,mp-9457,0.0,4.43945483,0.0,icsd-84791,"{20: 3, 75: 1, 8: 6}","[8, 20, 75]",86203751,Ca3Re1O6
Ca3Tl2O6,mp-9216,0.7309999999999999,3.37834925,0.0,icsd-413876,"{20: 3, 81: 2, 8: 6}","[8, 20, 81]",86203812,Ca3Tl2O6
Ca3UO6,mp-14252,2.2600999999999996,2.19195857,0.0,icsd-35457,"{20: 3, 92: 1, 8: 6}","[8, 20, 92]",86203921,Ca3U1O6
Ca4PdO6,mp-10299,1.8226999999999998,2.92705301,0.0,icsd-88134,"{20: 4, 46: 1, 8: 6}","[8, 20, 46]",86204461,Ca4Pd1O6
Na2CaP2O7,mp-561260,4.962,0.7994127,0.0,icsd-89468,"{11: 2, 20: 1, 15: 2, 8: 7}","[8, 11, 15, 20]",87112152201,Na2Ca1P2O7
CaCrP2O7,mp-19134,0.10760000000000058,4.97525801,0.0,icsd-411743,"{20: 1, 24: 1, 15: 2, 8: 7}","[8, 15, 20, 24]",87152201241,Ca1Cr1P2O7
CaMnP2O7,mp-18743,3.4785000000000004,3.07451812,0.0,icsd-78659,"{20: 1, 25: 1, 15: 2, 8: 7}","[8, 15, 20, 25]",87152201251,Ca1Mn1P2O7
CaCuP2O7,mp-14694,0.30889999999999995,2.86401933,0.0,icsd-68510,"{20: 1, 29: 1, 15: 2, 8: 7}","[8, 15, 20, 29]",87152201291,Ca1Cu1P2O7
CaP2PdO7,mp-1214043,0.3569,3.38019359,0.0,pf-6648,"{20: 1, 15: 2, 46: 1, 8: 7}","[8, 15, 20, 46]",87152201461,Ca1P2Pd1O7
CaCdP2O7,mp-1213987,3.8448,1.69153766,0.0,pf-36988,"{20: 1, 48: 1, 15: 2, 8: 7}","[8, 15, 20, 48]",87152201481,Ca1Cd1P2O7
Ca2P2O7,mp-17922,5.3635,1.23746538,0.0,icsd-22225,"{20: 2, 15: 2, 8: 7}","[8, 15, 20]",87152202,Ca2P2O7
Rb2CaV2O7,mp-559758,3.3426,-0.54184251,0.0,icsd-246368,"{37: 2, 20: 1, 23: 2, 8: 7}","[8, 20, 23, 37]",87201232372,Rb2Ca1V2O7
Cs2CaV2O7,mp-1202328,3.4021,-0.15232508,0.0,icsd-246369,"{55: 2, 20: 1, 23: 2, 8: 7}","[8, 20, 23, 55]",87201232552,Cs2Ca1V2O7
Ca2V2O7,mp-27614,2.9553000000000003,0.86006882,0.0,icsd-20609,"{20: 2, 23: 2, 8: 7}","[8, 20, 23]",87202232,Ca2V2O7
Ca2As2O7,mp-6929,3.3366000000000002,0.64645077,0.0,icsd-32602,"{20: 2, 33: 2, 8: 7}","[8, 20, 33]",87202332,Ca2As2O7
Ca2Nb2O7,mp-13979,3.011,1.50024666,0.0,icsd-26010,"{20: 2, 41: 2, 8: 7}","[8, 20, 41]",87202412,Ca2Nb2O7
Ca2Ru2O7,mp-554638,0.0,3.12390187,0.0,icsd-156409,"{20: 2, 44: 2, 8: 7}","[8, 20, 44]",87202442,Ca2Ru2O7
Ca2Sb2O7,mp-16280,1.7433999999999998,3.97508298,0.0,icsd-261535,"{20: 2, 51: 2, 8: 7}","[8, 20, 51]",87202512,Ca2Sb2O7
Ca2Ta2O7,mp-680380,3.3532,5.20205074,0.0,icsd-93847,"{20: 2, 73: 2, 8: 7}","[8, 20, 73]",87202732,Ca2Ta2O7
Ca2Os2O7,mp-2923,0.0,4.23229296,0.0,icsd-97094,"{20: 2, 76: 2, 8: 7}","[8, 20, 76]",87202762,Ca2Os2O7
Na2Ca(SO4)2,mp-6397,5.4849,0.80405347,0.0,icsd-28429,"{11: 2, 20: 1, 16: 2, 8: 8}","[8, 11, 16, 20]",88112162201,Na2Ca1S2O8
CaZn2(PO4)2,mp-18308,3.7871999999999995,1.02119208,0.0,icsd-202571,"{20: 1, 30: 2, 15: 2, 8: 8}","[8, 15, 20, 30]",88152201302,Ca1Zn2P2O8
CaU(PO4)2,mp-9360,0.0,5.42943127,0.0,icsd-81388,"{20: 1, 92: 1, 15: 2, 8: 8}","[8, 15, 20, 92]",88152201921,Ca1U1P2O8
Ca3(PO4)2,mp-1197377,4.9039,1.53836198,0.0,icsd-923,"{20: 3, 15: 2, 8: 8}","[8, 15, 20]",88152203,Ca3P2O8
CaCo2Te3(ClO4)2,mp-562004,2.1672000000000002,2.46826253,0.0,icsd-418681,"{20: 1, 27: 2, 52: 3, 17: 2, 8: 8}","[8, 17, 20, 27, 52]",88172201272523,Ca1Co2Te3Cl2O8
BaCa(GaO2)4,mp-561446,3.0678,0.8271514,0.0,icsd-280042,"{56: 1, 20: 1, 31: 4, 8: 8}","[8, 20, 31, 56]",88201314561,Ba1Ca1Ga4O8
CaU(SeO4)2,mp-554227,1.9467999999999999,1.33273049,0.0,icsd-59736,"{20: 1, 92: 1, 34: 2, 8: 8}","[8, 20, 34, 92]",88201342921,Ca1U1Se2O8
CaTe3O8,mp-15511,2.0176,4.61248851,0.0,icsd-100661,"{20: 1, 52: 3, 8: 8}","[8, 20, 52]",88201523,Ca1Te3O8
Ca2Mn3O8,mp-18893,1.2523,2.12352509,0.0,icsd-24847,"{20: 2, 25: 3, 8: 8}","[8, 20, 25]",88202253,Ca2Mn3O8
Ca2Se3O8,mp-28535,3.433,1.16984956,0.0,icsd-54155,"{20: 2, 34: 3, 8: 8}","[8, 20, 34]",88202343,Ca2Se3O8
Ca2Pt3O8,mp-8710,1.1236000000000002,3.15412685,0.0,icsd-65412,"{20: 2, 78: 3, 8: 8}","[8, 20, 78]",88202783,Ca2Pt3O8
NaCa(PO3)3,mp-1020683,5.4489,1.01706224,0.0,icsd-418632,"{11: 1, 20: 1, 15: 3, 8: 9}","[8, 11, 15, 20]",89111153201,Na1Ca1P3O9
Na2CaVP2O9,mp-561006,2.5585999999999998,2.17527084,0.0,icsd-99616,"{11: 2, 20: 1, 23: 1, 15: 2, 8: 9}","[8, 11, 15, 20, 23]",89112152201231,Na2Ca1V1P2O9
CaV2P2O9,mp-21541,1.5018000000000002,3.02737596,0.0,icsd-79735,"{20: 1, 23: 2, 15: 2, 8: 9}","[8, 15, 20, 23]",89152201232,Ca1V2P2O9
Ca4P2O9,mp-5263,4.747400000000001,2.2085094,0.0,icsd-291496,"{20: 4, 15: 2, 8: 9}","[8, 15, 20]",89152204,Ca4P2O9
CsCa(PO3)3,mp-1201263,5.3035,4.69521177,0.0,icsd-245062,"{55: 1, 20: 1, 15: 3, 8: 9}","[8, 15, 20, 55]",89153201551,Cs1Ca1P3O9
Sr3CaRu2O9,mp-557111,0.0,3.46417236,0.0,icsd-94912,"{38: 3, 20: 1, 44: 2, 8: 9}","[8, 20, 38, 44]",89201383442,Sr3Ca1Ru2O9
Sr3CaIr2O9,mp-1195131,0.0,3.72257141,0.0,icsd-196059,"{38: 3, 20: 1, 77: 2, 8: 9}","[8, 20, 38, 77]",89201383772,Sr3Ca1Ir2O9
Ba3CaNb2O9,mp-1214569,2.6460000000000004,2.05551185,0.0,pf-32013,"{56: 3, 20: 1, 41: 2, 8: 9}","[8, 20, 41, 56]",89201412563,Ba3Ca1Nb2O9
Ba3CaRu2O9,mp-6443,0.0,3.37780867,0.0,icsd-9608,"{56: 3, 20: 1, 44: 2, 8: 9}","[8, 20, 44, 56]",89201442563,Ba3Ca1Ru2O9
Ba3CaSb2O9,mp-554817,3.1711000000000005,2.76092689,0.0,icsd-249664,"{56: 3, 20: 1, 51: 2, 8: 9}","[8, 20, 51, 56]",89201512563,Ba3Ca1Sb2O9
Ba3CaIr2O9,mp-17448,0.0,3.51789151,0.0,icsd-245253,"{56: 3, 20: 1, 77: 2, 8: 9}","[8, 20, 56, 77]",89201563772,Ba3Ca1Ir2O9
CaTa2Bi2O9,mp-556697,2.9633000000000003,3.18865949,0.0,icsd-92056,"{20: 1, 73: 2, 83: 2, 8: 9}","[8, 20, 73, 83]",89201732832,Ca1Ta2Bi2O9
Ca3Nb2CoO9,mp-561965,2.1471000000000005,3.04082928,0.0,icsd-150433,"{20: 3, 41: 2, 27: 1, 8: 9}","[8, 20, 27, 41]",89203271412,Ca3Nb2Co1O9
Ca3Ga4O9,mp-29226,2.6392999999999995,1.3596729,0.0,icsd-100356,"{20: 3, 31: 4, 8: 9}","[8, 20, 31]",89203314,Ca3Ga4O9
Ca4Nb2O9,mp-31016,3.0355999999999996,1.95799473,0.0,icsd-51311,"{20: 4, 41: 2, 8: 9}","[8, 20, 41]",89204412,Ca4Nb2O9
CaClF,mp-27546,5.6701999999999995,1.11750618,0.0,icsd-1130,"{20: 1, 17: 1, 9: 1}","[9, 17, 20]",91171201,Ca1Cl1F1
CaAs2F12,mp-1213993,4.8545,-3.37107476,0.0,pf-37373,"{20: 1, 33: 2, 9: 12}","[9, 20, 33]",912201332,Ca1As2F12
Ca(AuF6)2,mp-28153,1.5298999999999998,-3.41634627,0.0,icsd-39315,"{20: 1, 79: 2, 9: 12}","[9, 20, 79]",912201792,Ca1Au2F12
Ba2CaMnV2F14,mp-1214724,1.2483,2.04363329,0.0,pf-7759,"{56: 2, 20: 1, 25: 1, 23: 2, 9: 14}","[9, 20, 23, 25, 56]",914201232251562,Ba2Ca1Mn1V2F14
Ba2CaV2FeF14,mp-1214736,1.0213999999999999,2.08966885,0.0,pf-18258,"{56: 2, 20: 1, 23: 2, 26: 1, 9: 14}","[9, 20, 23, 26, 56]",914201232261562,Ba2Ca1V2Fe1F14
Ba2CaV2CoF14,mp-1203415,2.5605,3.09320677,0.0,icsd-49023,"{56: 2, 20: 1, 23: 2, 27: 1, 9: 14}","[9, 20, 23, 27, 56]",914201232271562,Ba2Ca1V2Co1F14
Ba2CaV2CuF14,mp-581167,0.1441,0.70344131,0.0,icsd-419544,"{56: 2, 20: 1, 23: 2, 29: 1, 9: 14}","[9, 20, 23, 29, 56]",914201232291562,Ba2Ca1V2Cu1F14
Ba2CaCr2CuF14,mp-582663,0.0,1.17086998,0.0,icsd-419545,"{56: 2, 20: 1, 24: 2, 29: 1, 9: 14}","[9, 20, 24, 29, 56]",914201242291562,Ba2Ca1Cr2Cu1F14
Ba2CaMn2CuF14,mp-1045850,0.7884999999999999,0.24948034,0.0,pf-39241,"{56: 2, 20: 1, 25: 2, 29: 1, 9: 14}","[9, 20, 25, 29, 56]",914201252291562,Ba2Ca1Mn2Cu1F14
Ba2CaGa2CuF14,mp-1214730,0.9278,1.21178032,0.0,pf-18334,"{56: 2, 20: 1, 31: 2, 29: 1, 9: 14}","[9, 20, 29, 31, 56]",914201291312562,Ba2Ca1Ga2Cu1F14
CaAs2(XeF5)4,mp-557180,2.3400000000000007,-4.2043821,0.0,icsd-412759,"{20: 1, 33: 2, 54: 4, 9: 20}","[9, 20, 33, 54]",920201332544,Ca1As2Xe4F20
Ca3Hf3AgF20,mp-1214066,0.8421000000000001,-1.23439119,0.0,pf-2674,"{20: 3, 72: 3, 47: 1, 9: 20}","[9, 20, 47, 72]",920203471723,Ca3Hf3Ag1F20
CaF2,mp-2741,7.1157,-1.01894632,0.0,icsd-41413,"{20: 1, 9: 2}","[9, 20]",92201,Ca1F2
CaP2Xe5F22,mp-557352,2.7179,-1.14732995,0.0,icsd-171324,"{20: 1, 15: 2, 54: 5, 9: 22}","[9, 15, 20, 54]",922152201545,Ca1P2Xe5F22
RbCaF3,mp-3654,6.3971,-2.27993741,0.0,icsd-201252,"{37: 1, 20: 1, 9: 3}","[9, 20, 37]",93201371,Rb1Ca1F3
CsCaF3,mp-7104,6.9005,-1.72263474,0.0,icsd-290448,"{55: 1, 20: 1, 9: 3}","[9, 20, 55]",93201551,Cs1Ca1F3
Ca2As4Xe5F34,mp-581887,2.5812,-3.64271879,0.0,icsd-391223,"{20: 2, 33: 4, 54: 5, 9: 34}","[9, 20, 33, 54]",934202334545,Ca2As4Xe5F34
CaCuF4,mp-12266,0.7392000000000001,0.80430605,0.0,icsd-9928,"{20: 1, 29: 1, 9: 4}","[9, 20, 29]",94201291,Ca1Cu1F4
Cs2CaF4,mp-15157,6.091,-1.53099921,0.0,icsd-82616,"{55: 2, 20: 1, 9: 4}","[9, 20, 55]",94201552,Cs2Ca1F4
CaCrF5,mp-556748,2.7248,-1.31530813,0.0,icsd-10286,"{20: 1, 24: 1, 9: 5}","[9, 20, 24]",95201241,Ca1Cr1F5
CaMnF5,mp-557426,0.995,-1.00656522,0.0,icsd-69632,"{20: 1, 25: 1, 9: 5}","[9, 20, 25]",95201251,Ca1Mn1F5
CaFeF5,mp-542232,2.8329999999999997,-2.34368277,0.0,icsd-412862,"{20: 1, 26: 1, 9: 5}","[9, 20, 26]",95201261,Ca1Fe1F5
CaCrF6,mp-557519,1.5339000000000003,-2.75614002,0.0,icsd-10343,"{20: 1, 24: 1, 9: 6}","[9, 20, 24]",96201241,Ca1Cr1F6
CaRhF6,mp-9928,0.0,-1.35545777,0.0,icsd-42160,"{20: 1, 45: 1, 9: 6}","[9, 20, 45]",96201451,Ca1Rh1F6
CaPdF6,mp-7922,2.1062,-2.25078207,0.0,icsd-26164,"{20: 1, 46: 1, 9: 6}","[9, 20, 46]",96201461,Ca1Pd1F6
CaSnF6,mp-4782,5.418,-3.16465386,0.0,icsd-35722,"{20: 1, 50: 1, 9: 6}","[9, 20, 50]",96201501,Ca1Sn1F6
CaPtF6,mp-8255,2.643,-1.44655694,0.0,icsd-37443,"{20: 1, 78: 1, 9: 6}","[9, 20, 78]",96201781,Ca1Pt1F6
CaPbF6,mp-20463,3.4558999999999997,-3.70066556,0.0,icsd-25522,"{20: 1, 82: 1, 9: 6}","[9, 20, 82]",96201821,Ca1Pb1F6
SrCaCrF7,mp-1208686,4.2453,3.06100432,0.0,pf-39322,"{38: 1, 20: 1, 24: 1, 9: 7}","[9, 20, 24, 38]",97201241381,Sr1Ca1Cr1F7
BaCaCrF7,mp-560577,3.8013,-0.45769621,0.0,icsd-47181,"{56: 1, 20: 1, 24: 1, 9: 7}","[9, 20, 24, 56]",97201241561,Ba1Ca1Cr1F7
BaCaGaF7,mp-8416,6.3083,-1.22762495,0.0,icsd-47180,"{56: 1, 20: 1, 31: 1, 9: 7}","[9, 20, 31, 56]",97201311561,Ba1Ca1Ga1F7
RbCaZrF7,mp-1209261,5.856199999999999,3.43451047,0.0,pf-39015,"{37: 1, 20: 1, 40: 1, 9: 7}","[9, 20, 37, 40]",97201371401,Rb1Ca1Zr1F7
RbCaHfF7,mp-1209253,6.5402000000000005,4.25522867,0.0,pf-18101,"{37: 1, 20: 1, 72: 1, 9: 7}","[9, 20, 37, 72]",97201371721,Rb1Ca1Hf1F7
CaZrTlF7,mp-1213957,5.5631,4.15776842,0.0,pf-7615,"{20: 1, 40: 1, 81: 1, 9: 7}","[9, 20, 40, 81]",97201401811,Ca1Zr1Tl1F7
CaHfTlF7,mp-1213969,5.5318000000000005,4.25873434,0.0,pf-28658,"{20: 1, 72: 1, 81: 1, 9: 7}","[9, 20, 72, 81]",97201721811,Ca1Hf1Tl1F7
CaTaF7,mp-558235,5.0442,-2.20509047,0.0,icsd-417252,"{20: 1, 73: 1, 9: 7}","[9, 20, 73]",97201731,Ca1Ta1F7