formula,material_id,band_gap,efermi,energy_above_hull,database_IDs,comp_atoms,sorted_keys_comp_atoms,comp_number,new_formula
KY(H2N)4,mp-758742,2.6774,-0.44000853,0.0,icsd-202010,"{19: 1, 39: 1, 1: 8, 7: 4}","[1, 7, 19, 39]",1874191391,K1Y1H8N4
K2Zn(H2N)4,mp-722979,1.98,-0.33743263,0.0,icsd-50167,"{19: 2, 30: 1, 1: 8, 7: 4}","[1, 7, 19, 30]",1874192301,K2Zn1H8N4
K2FeH8(SO6)2,mp-542146,4.4501,0.11102183,0.0,icsd-92704,"{19: 2, 26: 1, 1: 8, 16: 2, 8: 12}","[1, 8, 16, 19, 26]",18812162192261,K2Fe1H8S2O12
K6Zr3H8(OF)12,mp-707782,3.3651,-0.67567957,0.0,icsd-80814,"{19: 6, 40: 3, 1: 8, 8: 12, 9: 12}","[1, 8, 9, 19, 40]",18812912196403,K6Zr3H8O12F12
K2CoP4(HO2)8,mp-1195899,3.4852,0.25969012,0.0,icsd-261585,"{19: 2, 27: 1, 15: 4, 1: 8, 8: 16}","[1, 8, 15, 19, 27]",18816154192271,K2Co1P4H8O16
K4Mn3P6(HO3)8,mp-1201463,3.7533000000000003,5.00446806,0.0,icsd-418750,"{19: 4, 25: 3, 15: 6, 1: 8, 8: 24}","[1, 8, 15, 19, 25]",18824156194253,K4Mn3P6H8O24
K,mp-1184804,0.0,-0.11730635,0.0,icsd-161379,{19: 1},[19],191,K1
K10In5Sb9,mp-582813,0.5520999999999998,3.09380648,0.0,icsd-56323,"{19: 10, 49: 5, 51: 9}","[19, 49, 51]",1910495519,K10In5Sb9
K10Tl7,mp-1212012,0.0,1.76809708,0.0,pf-7015,"{19: 10, 81: 7}","[19, 81]",1910817,K10Tl7
KNaReH9,mp-707463,5.4451,-2.19425112,0.0,icsd-79924,"{19: 1, 11: 1, 75: 1, 1: 9}","[1, 11, 19, 75]",19111191751,K1Na1Re1H9
K11Cd2Sb5,mp-1194660,0.5584,1.22397479,0.0,icsd-425646,"{19: 11, 48: 2, 51: 5}","[19, 48, 51]",1911482515,K11Cd2Sb5
K11(In2Bi3)3,mp-680539,0.03130000000000033,2.66273232,0.0,icsd-413314,"{19: 11, 49: 6, 83: 9}","[19, 49, 83]",1911496839,K11In6Bi9
KCa2Cd2Sb3,mp-1200343,0.06709999999999994,3.8313559,0.0,icsd-420619,"{19: 1, 20: 2, 48: 2, 51: 3}","[19, 20, 48, 51]",191202482513,K1Ca2Cd2Sb3
KTi5Se8,mp-976257,0.0,4.62103546,0.0,icsd-602313,"{19: 1, 22: 5, 34: 8}","[19, 22, 34]",191225348,K1Ti5Se8
K12In2Se9,mp-570411,1.646,0.36860343,0.0,icsd-419589,"{19: 12, 49: 2, 34: 9}","[19, 34, 49]",1912349492,K12In2Se9
KV5Se8,mp-973666,0.0,4.12482446,0.0,icsd-602325,"{19: 1, 23: 5, 34: 8}","[19, 23, 34]",191235348,K1V5Se8
KCr5Se8,mp-1104473,0.0037000000000002586,3.71932095,0.0,icsd-602350,"{19: 1, 24: 5, 34: 8}","[19, 24, 34]",191245348,K1Cr5Se8
KCr5Te8,mp-1103869,0.0,5.27389918,0.0,icsd-602368,"{19: 1, 24: 5, 52: 8}","[19, 24, 52]",191245528,K1Cr5Te8
K12Sn4Au21,mp-1201536,0.0,2.84591133,0.0,icsd-249980,"{19: 12, 50: 4, 79: 21}","[19, 50, 79]",19125047921,K12Sn4Au21
KMnBr3,mp-29636,1.7869,0.80319679,0.0,icsd-42441,"{19: 1, 25: 1, 35: 3}","[19, 25, 35]",191251353,K1Mn1Br3
KFeBr4,mp-1211520,0.9533,-1.17242737,0.0,pf-31454,"{19: 1, 26: 1, 35: 4}","[19, 26, 35]",191261354,K1Fe1Br4
K(FeAs)2,mp-35276,0.0,3.64305439,0.0,icsd-189036,"{19: 1, 26: 2, 33: 2}","[19, 26, 33]",191262332,K1Fe2As2
K(FeSb3)4,mp-1212045,0.0,7.18957375,0.0,pf-11189,"{19: 1, 26: 4, 51: 12}","[19, 26, 51]",1912645112,K1Fe4Sb12
K(CoAs)2,mp-569408,0.0,3.53579206,0.0,icsd-610072,"{19: 1, 27: 2, 33: 2}","[19, 27, 33]",191272332,K1Co2As2
KIn9Co2,mp-571263,0.0,6.55473385,0.0,icsd-260251,"{19: 1, 49: 9, 27: 2}","[19, 27, 49]",191272499,K1In9Co2
KCuSe,mp-7435,0.1761999999999997,2.87036169,0.0,icsd-12157,"{19: 1, 29: 1, 34: 1}","[19, 29, 34]",191291341,K1Cu1Se1
KZrCuSe3,mp-9318,0.21439999999999992,3.16383249,0.0,icsd-80625,"{19: 1, 40: 1, 29: 1, 34: 3}","[19, 29, 34, 40]",191291343401,K1Zr1Cu1Se3
KUCuSe3,mp-582421,0.0,4.22000988,0.0,icsd-156246,"{19: 1, 92: 1, 29: 1, 34: 3}","[19, 29, 34, 92]",191291343921,K1U1Cu1Se3
KGd2CuSe4,mp-861926,0.7999,2.65525359,0.0,icsd-174369,"{19: 1, 64: 2, 29: 1, 34: 4}","[19, 29, 34, 64]",191291344642,K1Gd2Cu1Se4
KHo2CuSe4,mp-16559,0.5635999999999997,2.77063184,0.0,icsd-95028,"{19: 1, 67: 2, 29: 1, 34: 4}","[19, 29, 34, 67]",191291344672,K1Ho2Cu1Se4
KEr2CuSe4,mp-16560,0.5638999999999998,2.8402973,0.0,icsd-95029,"{19: 1, 68: 2, 29: 1, 34: 4}","[19, 29, 34, 68]",191291344682,K1Er2Cu1Se4
KCuPdSe5,mp-11114,0.9195000000000002,2.34675109,0.0,icsd-281423,"{19: 1, 29: 1, 46: 1, 34: 5}","[19, 29, 34, 46]",191291345461,K1Cu1Pd1Se5
KCe2CuSe6,mp-669330,0.08399999999999963,4.04481892,0.0,icsd-391078,"{19: 1, 58: 2, 29: 1, 34: 6}","[19, 29, 34, 58]",191291346582,K1Ce2Cu1Se6
KCuTe,mp-7436,0.6037000000000003,3.58372901,0.0,icsd-12158,"{19: 1, 29: 1, 52: 1}","[19, 29, 52]",191291521,K1Cu1Te1
KLaCuTe4,mp-1211368,0.2323000000000004,5.52130857,0.0,pf-17934,"{19: 1, 57: 1, 29: 1, 52: 4}","[19, 29, 52, 57]",191291524571,K1La1Cu1Te4
K(CuSe)2,mp-567657,0.0,3.33182321,0.0,icsd-98403,"{19: 1, 29: 2, 34: 2}","[19, 29, 34]",191292342,K1Cu2Se2
KNb(CuSe2)2,mp-6599,1.4228,1.93821768,0.0,icsd-71302,"{19: 1, 41: 1, 29: 2, 34: 4}","[19, 29, 34, 41]",191292344411,K1Nb1Cu2Se4
KTm2Cu3Se5,mp-865972,1.0489999999999995,3.75299745,0.0,icsd-174373,"{19: 1, 69: 2, 29: 3, 34: 5}","[19, 29, 34, 69]",191293345692,K1Tm2Cu3Se5
K(Cu2As)2,mp-8608,0.0,5.19217508,0.0,icsd-59207,"{19: 1, 29: 4, 33: 2}","[19, 29, 33]",191294332,K1Cu4As2
KZn13,mp-784,0.0,2.35314666,0.0,icsd-641378,"{19: 1, 30: 13}","[19, 30]",1913013,K1Zn13
KZnAs,mp-7421,0.2742,1.55707252,0.0,icsd-10459,"{19: 1, 30: 1, 33: 1}","[19, 30, 33]",191301331,K1Zn1As1
KZnSb,mp-7438,0.44300000000000006,2.19630567,0.0,icsd-12161,"{19: 1, 30: 1, 51: 1}","[19, 30, 51]",191301511,K1Zn1Sb1
KGaBr4,mp-28680,3.5771,-1.96576266,0.0,icsd-69651,"{19: 1, 31: 1, 35: 4}","[19, 31, 35]",191311354,K1Ga1Br4
KGaSb2,mp-29383,0.6920999999999999,2.99415309,0.0,icsd-300202,"{19: 1, 31: 1, 51: 2}","[19, 31, 51]",191311512,K1Ga1Sb2
KGaSb4,mp-29374,0.2906000000000004,3.87517718,0.0,icsd-300158,"{19: 1, 31: 1, 51: 4}","[19, 31, 51]",191311514,K1Ga1Sb4
KGaTe2,mp-17965,1.2481,1.80697692,0.0,icsd-411170,"{19: 1, 31: 1, 52: 2}","[19, 31, 52]",191311522,K1Ga1Te2
KGaI4,mp-29402,2.605,-0.19600991,0.0,icsd-400816,"{19: 1, 31: 1, 53: 4}","[19, 31, 53]",191311534,K1Ga1I4
KGa3,mp-181,0.21629999999999994,2.29525423,0.0,icsd-103649,"{19: 1, 31: 3}","[19, 31]",191313,K1Ga3
KGe,mp-2146,0.9106,0.93011116,0.0,icsd-409848,"{19: 1, 32: 1}","[19, 32]",191321,K1Ge1
KCdGeAs2,mp-1105494,0.6884999999999999,1.74867811,0.0,icsd-291309,"{19: 1, 48: 1, 32: 1, 33: 2}","[19, 32, 33, 48]",191321332481,K1Cd1Ge1As2
KLaGeSe4,mp-21097,1.6220000000000003,2.23382737,0.0,icsd-73971,"{19: 1, 57: 1, 32: 1, 34: 4}","[19, 32, 34, 57]",191321344571,K1La1Ge1Se4
KCeGeSe4,mp-21176,0.0,3.59774089,0.0,icsd-416621,"{19: 1, 58: 1, 32: 1, 34: 4}","[19, 32, 34, 58]",191321344581,K1Ce1Ge1Se4
KPrGeSe4,mp-12012,1.6332,1.17926539,0.0,icsd-409812,"{19: 1, 59: 1, 32: 1, 34: 4}","[19, 32, 34, 59]",191321344591,K1Pr1Ge1Se4
KSmGeSe4,mp-11634,1.6626,1.48010023,0.0,icsd-281682,"{19: 1, 62: 1, 32: 1, 34: 4}","[19, 32, 34, 62]",191321344621,K1Sm1Ge1Se4
K(GeAs)3,mp-1192374,0.6616000000000004,3.31546458,0.0,icsd-430747,"{19: 1, 32: 3, 33: 3}","[19, 32, 33]",191323333,K1Ge3As3
KAs,mp-713,0.6695,1.66715281,0.0,icsd-610749,"{19: 1, 33: 1}","[19, 33]",191331,K1As1
KAsSe2,mp-14659,1.5958999999999999,0.46303781,0.0,icsd-68638,"{19: 1, 33: 1, 34: 2}","[19, 33, 34]",191331342,K1As1Se2
KBaAsSe3,mp-1191826,1.6299,1.46559478,0.0,icsd-427690,"{19: 1, 56: 1, 33: 1, 34: 3}","[19, 33, 34, 56]",191331343561,K1Ba1As1Se3
KCdAs,mp-1018736,0.1656000000000002,1.91391482,0.0,icsd-609963,"{19: 1, 48: 1, 33: 1}","[19, 33, 48]",191331481,K1Cd1As1
KSnAs,mp-3481,0.33519999999999994,3.28889822,0.0,icsd-610765,"{19: 1, 50: 1, 33: 1}","[19, 33, 50]",191331501,K1Sn1As1
KHgAs,mp-7420,0.0,1.5050802,0.0,icsd-10458,"{19: 1, 80: 1, 33: 1}","[19, 33, 80]",191331801,K1Hg1As1
K(AsRu)2,mp-1206600,0.0,3.94907158,0.0,pf-36383,"{19: 1, 33: 2, 44: 2}","[19, 33, 44]",191332442,K1As2Ru2
K(AsRh)2,mp-34232,0.0,3.85427109,0.0,icsd-31474,"{19: 1, 33: 2, 45: 2}","[19, 33, 45]",191332452,K1As2Rh2
K(AsIr)2,mp-1206406,0.0,4.58301951,0.0,pf-35071,"{19: 1, 33: 2, 77: 2}","[19, 33, 77]",191332772,K1As2Ir2
KCd4As3,mp-1080452,0.0,1.89284436,0.0,icsd-262032,"{19: 1, 48: 4, 33: 3}","[19, 33, 48]",191333484,K1Cd4As3
K(SnAs)3,mp-1192538,0.5191999999999997,4.65508316,0.0,icsd-430749,"{19: 1, 50: 3, 33: 3}","[19, 33, 50]",191333503,K1Sn3As3
KSe,mp-9268,0.7039,0.4001197,0.0,icsd-73172,"{19: 1, 34: 1}","[19, 34]",191341,K1Se1
KAgSe,mp-16236,0.48219999999999996,1.56917696,0.0,icsd-52586,"{19: 1, 47: 1, 34: 1}","[19, 34, 47]",191341471,K1Ag1Se1
KAuSe,mp-9881,1.8159999999999998,0.77865718,0.0,icsd-40759,"{19: 1, 79: 1, 34: 1}","[19, 34, 79]",191341791,K1Au1Se1
KAg3Se2,mp-9782,0.0041999999999999815,1.86420994,0.0,icsd-402643,"{19: 1, 47: 3, 34: 2}","[19, 34, 47]",191342473,K1Ag3Se2
KInSe2,mp-505700,1.4816,1.07588587,0.0,icsd-91469,"{19: 1, 49: 1, 34: 2}","[19, 34, 49]",191342491,K1In1Se2
KSmSe2,mp-1006891,1.8906000000000003,1.23933783,0.0,icsd-602818,"{19: 1, 62: 1, 34: 2}","[19, 34, 62]",191342621,K1Sm1Se2
KTlSe2,mp-1211225,1.3576000000000001,1.61363233,0.0,pf-38570,"{19: 1, 81: 1, 34: 2}","[19, 34, 81]",191342811,K1Tl1Se2
K(MoSe)3,mp-1104242,0.0,4.58425241,0.0,icsd-641256,"{19: 1, 42: 3, 34: 3}","[19, 34, 42]",191343423,K1Mo3Se3
KPt2Se3,mp-14796,0.9439000000000002,2.36525427,0.0,icsd-69438,"{19: 1, 78: 2, 34: 3}","[19, 34, 78]",191343782,K1Pt2Se3
KNb(AgSe2)2,mp-567177,1.4589999999999999,0.7160299,0.0,icsd-412479,"{19: 1, 41: 1, 47: 2, 34: 4}","[19, 34, 41, 47]",191344411472,K1Nb1Ag2Se4
KTa(AgSe2)2,mp-571288,1.7478,0.74308721,0.0,icsd-412477,"{19: 1, 73: 1, 47: 2, 34: 4}","[19, 34, 47, 73]",191344472731,K1Ta1Ag2Se4
KInSnSe4,mp-568379,1.3747000000000003,1.25608182,0.0,icsd-170321,"{19: 1, 49: 1, 50: 1, 34: 4}","[19, 34, 49, 50]",191344491501,K1In1Sn1Se4
K(SnSe2)2,mp-28769,1.1726999999999999,1.48348243,0.0,icsd-72386,"{19: 1, 50: 2, 34: 4}","[19, 34, 50]",191344502,K1Sn2Se4
K(SbSe2)2,mp-9797,1.1172999999999997,2.90966256,0.0,icsd-402886,"{19: 1, 51: 2, 34: 4}","[19, 34, 51]",191344512,K1Sb2Se4
KCeSe4,mp-22395,0.0,3.94291843,0.0,icsd-67656,"{19: 1, 58: 1, 34: 4}","[19, 34, 58]",191344581,K1Ce1Se4
KTh(SbSe3)2,mp-568904,0.6898,4.12134313,0.0,icsd-85460,"{19: 1, 90: 1, 51: 2, 34: 6}","[19, 34, 51, 90]",191346512901,K1Th1Sb2Se6
K(ThSe3)2,mp-9522,0.0,2.78437927,0.0,icsd-85811,"{19: 1, 90: 2, 34: 6}","[19, 34, 90]",191346902,K1Th2Se6
K(USe3)2,mp-12414,0.0,4.61801716,0.0,icsd-171665,"{19: 1, 92: 2, 34: 6}","[19, 34, 92]",191346922,K1U2Se6
K(NpSe3)2,mp-1095186,0.0,4.44078717,0.0,icsd-260962,"{19: 1, 93: 2, 34: 6}","[19, 34, 93]",191346932,K1Np2Se6
KSm2Sb3Se8,mp-567322,0.5093999999999999,3.53218138,0.0,icsd-54799,"{19: 1, 62: 2, 51: 3, 34: 8}","[19, 34, 51, 62]",191348513622,K1Sm2Sb3Se8
KBr,mp-23251,4.3224,-1.81447618,0.0,icsd-44282,"{19: 1, 35: 1}","[19, 35]",191351,K1Br1
KHg5Br11,mp-1211303,2.1377,0.8868576,0.0,pf-24188,"{19: 1, 80: 5, 35: 11}","[19, 35, 80]",1913511805,K1Hg5Br11
KInBr3,mp-28529,2.3376,-0.2871512,0.0,icsd-50510,"{19: 1, 49: 1, 35: 3}","[19, 35, 49]",191353491,K1In1Br3
KInBr4,mp-22932,2.8234,-1.33818704,0.0,icsd-47141,"{19: 1, 49: 1, 35: 4}","[19, 35, 49]",191354491,K1In1Br4
KAuBr4,mp-29694,0.8099999999999999,-0.80469438,0.0,icsd-280033,"{19: 1, 79: 1, 35: 4}","[19, 35, 79]",191354791,K1Au1Br4
KTlBr4,mp-28048,1.8089,-1.39001839,0.0,icsd-35418,"{19: 1, 81: 1, 35: 4}","[19, 35, 81]",191354811,K1Tl1Br4
KSr2Br5,mp-1211375,4.2816,-0.40240506,0.0,pf-20169,"{19: 1, 38: 2, 35: 5}","[19, 35, 38]",191355382,K1Sr2Br5
KSrI3,mp-1205548,3.9993000000000003,4.28232066,0.0,pf-31902,"{19: 1, 38: 1, 53: 3}","[19, 38, 53]",191381533,K1Sr1I3
KSr2Cd2Sb3,mp-866639,0.1842999999999999,3.37300427,0.0,icsd-420623,"{19: 1, 38: 2, 48: 2, 51: 3}","[19, 38, 48, 51]",191382482513,K1Sr2Cd2Sb3
KYTe2,mp-16763,1.2981000000000003,2.93610426,0.0,icsd-419995,"{19: 1, 39: 1, 52: 2}","[19, 39, 52]",191391522,K1Y1Te2
K(TeMo)3,mp-1103956,0.0,5.59042243,0.0,icsd-603671,"{19: 1, 52: 3, 42: 3}","[19, 42, 52]",191423523,K1Te3Mo3
K14ZnGe16,mp-1195294,0.8916,1.47646915,0.0,icsd-237780,"{19: 14, 30: 1, 32: 16}","[19, 30, 32]",19143013216,K14Zn1Ge16
KAg3Te2,mp-1205342,0.25360000000000005,3.11193826,0.0,icsd-402230,"{19: 1, 47: 3, 52: 2}","[19, 47, 52]",191473522,K1Ag3Te2
KCd13,mp-397,0.0,2.02849289,0.0,icsd-102002,"{19: 1, 48: 13}","[19, 48]",1914813,K1Cd13
KCdSb,mp-1018652,0.0,2.6256056,0.0,icsd-620064,"{19: 1, 48: 1, 51: 1}","[19, 48, 51]",191481511,K1Cd1Sb1
KBa2Cd2Sb3,mp-1205075,0.2084999999999999,3.02950481,0.0,icsd-420620,"{19: 1, 56: 2, 48: 2, 51: 3}","[19, 48, 51, 56]",191482513562,K1Ba2Cd2Sb3
KEu2Cd2Sb3,mp-1204226,0.0,3.95885842,0.0,icsd-420621,"{19: 1, 63: 2, 48: 2, 51: 3}","[19, 48, 51, 63]",191482513632,K1Eu2Cd2Sb3
KInTe2,mp-19851,0.9868999999999999,3.11683549,0.0,icsd-73410,"{19: 1, 49: 1, 52: 2}","[19, 49, 52]",191491522,K1In1Te2
K(InAu2)2,mp-21134,0.0,4.62287012,0.0,icsd-249221,"{19: 1, 49: 2, 79: 4}","[19, 49, 79]",191492794,K1In2Au4
KIn4,mp-22481,0.0,4.66920893,0.0,icsd-51947,"{19: 1, 49: 4}","[19, 49]",191494,K1In4
K(In3Au2)2,mp-567545,0.0,6.02520567,0.0,icsd-249520,"{19: 1, 49: 6, 79: 4}","[19, 49, 79]",191496794,K1In6Au4
KSn,mp-542374,0.7336999999999998,2.51214191,0.0,icsd-409435,"{19: 1, 50: 1}","[19, 50]",191501,K1Sn1
KSnSb,mp-3486,0.26090000000000035,3.64084833,0.0,icsd-33933,"{19: 1, 50: 1, 51: 1}","[19, 50, 51]",191501511,K1Sn1Sb1
K(SnAu)3,mp-570936,0.0,5.44117066,0.0,icsd-249645,"{19: 1, 50: 3, 79: 3}","[19, 50, 79]",191503793,K1Sn3Au3
K(Sn3Au2)2,mp-570068,0.0,6.02287507,0.0,icsd-249644,"{19: 1, 50: 6, 79: 4}","[19, 50, 79]",191506794,K1Sn6Au4
KSb,mp-1536,0.6095000000000002,2.32513237,0.0,icsd-56529,"{19: 1, 51: 1}","[19, 51]",191511,K1Sb1
KHgSb,mp-10763,0.0,2.08857285,0.0,icsd-56201,"{19: 1, 80: 1, 51: 1}","[19, 51, 80]",191511801,K1Hg1Sb1
KSb2,mp-29055,0.21530000000000005,3.85547746,0.0,icsd-80945,"{19: 1, 51: 2}","[19, 51]",191512,K1Sb2
KTe,mp-2072,0.6708999999999998,1.41087109,0.0,icsd-73174,"{19: 1, 52: 1}","[19, 52]",191521,K1Te1
KTeAu,mp-3553,0.0,2.91280866,0.0,icsd-655856,"{19: 1, 52: 1, 79: 1}","[19, 52, 79]",191521791,K1Te1Au1
KLaTe2,mp-11739,1.7012999999999994,3.05344747,0.0,icsd-98654,"{19: 1, 57: 1, 52: 2}","[19, 52, 57]",191522571,K1La1Te2
KPrTe2,mp-5273,1.2799999999999998,2.46391478,0.0,icsd-98655,"{19: 1, 59: 1, 52: 2}","[19, 52, 59]",191522591,K1Pr1Te2
KNdTe2,mp-11740,1.2648000000000001,2.52994265,0.0,icsd-98656,"{19: 1, 60: 1, 52: 2}","[19, 52, 60]",191522601,K1Nd1Te2
KSmTe2,mp-9036,1.2623000000000002,2.5808057,0.0,icsd-73547,"{19: 1, 62: 1, 52: 2}","[19, 52, 62]",191522621,K1Sm1Te2
KGdTe2,mp-20420,0.8263000000000003,2.72595571,0.0,icsd-98657,"{19: 1, 64: 1, 52: 2}","[19, 52, 64]",191522641,K1Gd1Te2
KErTe2,mp-9263,1.3304000000000005,2.86915272,0.0,icsd-71560,"{19: 1, 68: 1, 52: 2}","[19, 52, 68]",191522681,K1Er1Te2
KTaTe3,mp-568318,0.41800000000000015,3.79640768,0.0,icsd-89473,"{19: 1, 73: 1, 52: 3}","[19, 52, 73]",191523731,K1Ta1Te3
KPrTe4,mp-11132,0.17629999999999946,4.40613219,0.0,icsd-391204,"{19: 1, 59: 1, 52: 4}","[19, 52, 59]",191524591,K1Pr1Te4
KNdTe4,mp-11010,0.1570999999999998,4.38862248,0.0,icsd-412792,"{19: 1, 60: 1, 52: 4}","[19, 52, 60]",191524601,K1Nd1Te4
KPr3Te8,mp-567710,0.46750000000000025,4.34243341,0.0,icsd-412923,"{19: 1, 59: 3, 52: 8}","[19, 52, 59]",191528593,K1Pr3Te8
KNd3Te8,mp-669359,0.43989999999999974,4.41405338,0.0,icsd-50837,"{19: 1, 60: 3, 52: 8}","[19, 52, 60]",191528603,K1Nd3Te8
KI,mp-22898,3.8513,-0.50676024,0.0,icsd-53843,"{19: 1, 53: 1}","[19, 53]",191531,K1I1
KPr6OsI10,mp-568343,0.0,3.55943373,0.0,icsd-78904,"{19: 1, 59: 6, 76: 1, 53: 10}","[19, 53, 59, 76]",1915310596761,K1Pr6Os1I10
KAuI3,mp-31045,0.6459,0.99588837,0.0,icsd-32036,"{19: 1, 79: 1, 53: 3}","[19, 53, 79]",191533791,K1Au1I3
KAuI4,mp-29519,0.3003,1.166334,0.0,icsd-406966,"{19: 1, 79: 1, 53: 4}","[19, 53, 79]",191534791,K1Au1I4
KBa2I5,mp-1211784,3.7157999999999998,0.82265454,0.0,pf-18963,"{19: 1, 56: 2, 53: 5}","[19, 53, 56]",191535562,K1Ba2I5
K17In41,mp-640781,0.0,4.56911106,0.0,icsd-370038,"{19: 17, 49: 41}","[19, 49]",19174941,K17In41
KAu2,mp-30401,0.0,3.10527717,0.0,icsd-58520,"{19: 1, 79: 2}","[19, 79]",191792,K1Au2
KAu5,mp-1298,0.0,3.33449983,0.0,icsd-106286,"{19: 1, 79: 5}","[19, 79]",191795,K1Au5
KHg,mp-11462,0.0,1.07535346,0.0,icsd-104302,"{19: 1, 80: 1}","[19, 80]",191801,K1Hg1
KHg11,mp-11952,0.0,1.51287388,0.0,icsd-410566,"{19: 1, 80: 11}","[19, 80]",1918011,K1Hg11
KHg2,mp-30717,0.0,1.38397829,0.0,icsd-104303,"{19: 1, 80: 2}","[19, 80]",191802,K1Hg2
KHg6,mp-1193208,0.0,1.4456974,0.0,icsd-427001,"{19: 1, 80: 6}","[19, 80]",191806,K1Hg6
KPb,mp-21526,0.37349999999999994,2.55349001,0.0,icsd-401436,"{19: 1, 82: 1}","[19, 82]",191821,K1Pb1
KBi,mp-31104,0.4058999999999999,2.00990344,0.0,icsd-55065,"{19: 1, 83: 1}","[19, 83]",191831,K1Bi1
KBi2,mp-23279,0.0,3.5346924,0.0,icsd-55068,"{19: 1, 83: 2}","[19, 83]",191832,K1Bi2
K2TcH9,mp-1211633,4.9451,-2.41089302,0.0,pf-13392,"{19: 2, 43: 1, 1: 9}","[1, 19, 43]",19192431,K2Tc1H9
K2ReH9,mp-29877,5.212999999999999,-2.50658103,0.0,icsd-27563,"{19: 2, 75: 1, 1: 9}","[1, 19, 75]",19192751,K2Re1H9
K2VCuSe4,mp-15220,1.1253,1.18488955,0.0,icsd-84303,"{19: 2, 23: 1, 29: 1, 34: 4}","[19, 23, 29, 34]",192231291344,K2V1Cu1Se4
K2VAgSe4,mp-14634,0.9843,0.88005934,0.0,icsd-50461,"{19: 2, 23: 1, 47: 1, 34: 4}","[19, 23, 34, 47]",192231344471,K2V1Ag1Se4
K2MnSe2,mp-8716,0.9895,1.30094328,0.0,icsd-65456,"{19: 2, 25: 1, 34: 2}","[19, 25, 34]",192251342,K2Mn1Se2
K2MnSnSe4,mp-628305,0.2896000000000001,2.19613167,0.0,icsd-90118,"{19: 2, 25: 1, 50: 1, 34: 4}","[19, 25, 34, 50]",192251344501,K2Mn1Sn1Se4
K2Mn(SnSe3)2,mp-669410,0.8791,2.00223036,0.0,icsd-90117,"{19: 2, 25: 1, 50: 2, 34: 6}","[19, 25, 34, 50]",192251346502,K2Mn1Sn2Se6
K2MnTe2,mp-8719,0.0,2.38693017,0.0,icsd-65459,"{19: 2, 25: 1, 52: 2}","[19, 25, 52]",192251522,K2Mn1Te2
K2MnI4,mp-1211832,2.0705,2.62378998,0.0,pf-18426,"{19: 2, 25: 1, 53: 4}","[19, 25, 53]",192251534,K2Mn1I4
K2FeI4,mp-1211993,0.0,1.86453932,0.0,pf-30023,"{19: 2, 26: 1, 53: 4}","[19, 26, 53]",192261534,K2Fe1I4
K2CoBr4,mp-1212556,0.9722999999999999,0.86263058,0.0,pf-38291,"{19: 2, 27: 1, 35: 4}","[19, 27, 35]",192271354,K2Co1Br4
K2CoI4,mp-1211977,0.5509999999999999,1.0805649,0.0,pf-40453,"{19: 2, 27: 1, 53: 4}","[19, 27, 53]",192271534,K2Co1I4
K2Ga3CuSe6,mp-10973,1.4218,1.67409297,0.0,icsd-281195,"{19: 2, 31: 3, 29: 1, 34: 6}","[19, 29, 31, 34]",192291313346,K2Ga3Cu1Se6
K2CuAs,mp-15684,1.0674000000000001,1.65357036,0.0,icsd-43936,"{19: 2, 29: 1, 33: 1}","[19, 29, 33]",192291331,K2Cu1As1
K2NbCuSe4,mp-9003,1.6164,1.10917039,0.0,icsd-73324,"{19: 2, 41: 1, 29: 1, 34: 4}","[19, 29, 34, 41]",192291344411,K2Nb1Cu1Se4
K2TaCuSe4,mp-8972,2.0288000000000004,1.07897132,0.0,icsd-72427,"{19: 2, 73: 1, 29: 1, 34: 4}","[19, 29, 34, 73]",192291344731,K2Ta1Cu1Se4
K2In3CuSe6,mp-21713,1.1284,2.38369879,0.0,icsd-281194,"{19: 2, 49: 3, 29: 1, 34: 6}","[19, 29, 34, 49]",192291346493,K2In3Cu1Se6
K2CuBr3,mp-571440,1.9017999999999997,0.9455239,0.0,icsd-150293,"{19: 2, 29: 1, 35: 3}","[19, 29, 35]",192291353,K2Cu1Br3
K2Y4Cu4Se9,mp-863763,0.7081000000000004,3.27848251,0.0,icsd-174375,"{19: 2, 39: 4, 29: 4, 34: 9}","[19, 29, 34, 39]",192294349394,K2Y4Cu4Se9
K2Dy4Cu4Se9,mp-977368,0.7292999999999998,3.33299183,0.0,icsd-174374,"{19: 2, 66: 4, 29: 4, 34: 9}","[19, 29, 34, 66]",192294349664,K2Dy4Cu4Se9
K2(CuTe)5,mp-28737,0.0,4.75089015,0.0,icsd-71204,"{19: 2, 29: 5, 52: 5}","[19, 29, 52]",192295525,K2Cu5Te5
K2Zn(SnSe3)2,mp-1195072,1.5684000000000002,1.35715929,0.0,icsd-239632,"{19: 2, 30: 1, 50: 2, 34: 6}","[19, 30, 34, 50]",192301346502,K2Zn1Sn2Se6
K2ZnBr4,mp-23535,3.8018,-1.28711785,0.0,icsd-78449,"{19: 2, 30: 1, 35: 4}","[19, 30, 35]",192301354,K2Zn1Br4
K2ZnTe2,mp-12535,2.0537,1.20916442,0.0,icsd-420088,"{19: 2, 30: 1, 52: 2}","[19, 30, 52]",192301522,K2Zn1Te2
K2ZnI4,mp-1211403,3.0987,3.05506915,0.0,pf-39147,"{19: 2, 30: 1, 53: 4}","[19, 30, 53]",192301534,K2Zn1I4
K2Zn5As4,mp-1191100,0.16049999999999986,2.52341071,0.0,icsd-250687,"{19: 2, 30: 5, 33: 4}","[19, 30, 33]",192305334,K2Zn5As4
K2GaAs2,mp-15415,1.243,1.13717486,0.0,icsd-300142,"{19: 2, 31: 1, 33: 2}","[19, 31, 33]",192311332,K2Ga1As2
K2GaSb2,mp-30077,1.1041999999999998,1.90816792,0.0,icsd-53579,"{19: 2, 31: 1, 51: 2}","[19, 31, 51]",192311512,K2Ga1Sb2
K2Ga2As3,mp-15432,1.0329000000000002,1.86323102,0.0,icsd-300195,"{19: 2, 31: 2, 33: 3}","[19, 31, 33]",192312333,K2Ga2As3
K2Ga2Sb3,mp-15433,0.9068999999999998,2.77996237,0.0,icsd-300196,"{19: 2, 31: 2, 51: 3}","[19, 31, 51]",192312513,K2Ga2Sb3