formula,material_id,band_gap,efermi,energy_above_hull,database_IDs,comp_atoms,sorted_keys_comp_atoms,comp_number,new_formula
KGd(WO4)2,mp-505647,3.2474999999999996,1.10724389,0.0,icsd-87720,"{19: 1, 64: 1, 74: 2, 8: 8}","[8, 19, 64, 74]",88191641742,K1Gd1W2O8
KTb(WO4)2,mp-1190561,3.3535000000000004,1.09361896,0.0,icsd-429335,"{19: 1, 65: 1, 74: 2, 8: 8}","[8, 19, 65, 74]",88191651742,K1Tb1W2O8
KHo(WO4)2,mp-1192188,3.3409999999999997,1.09926004,0.0,icsd-182626,"{19: 1, 67: 1, 74: 2, 8: 8}","[8, 19, 67, 74]",88191671742,K1Ho1W2O8
KEr(WO4)2,mp-558010,3.2910999999999997,1.06401205,0.0,icsd-157832,"{19: 1, 68: 1, 74: 2, 8: 8}","[8, 19, 68, 74]",88191681742,K1Er1W2O8
KLu(WO4)2,mp-18719,3.2486,1.07465888,0.0,icsd-155155,"{19: 1, 71: 1, 74: 2, 8: 8}","[8, 19, 71, 74]",88191711742,K1Lu1W2O8
KBi(WO4)2,mp-23136,2.4244000000000003,2.06967745,0.0,icsd-419114,"{19: 1, 83: 1, 74: 2, 8: 8}","[8, 19, 74, 83]",88191742831,K1Bi1W2O8
K2RbScV2O8,mp-1211745,3.0768,-0.18818162,0.0,pf-26336,"{19: 2, 37: 1, 21: 1, 23: 2, 8: 8}","[8, 19, 21, 23, 37]",88192211232371,K2Rb1Sc1V2O8
K2RbYV2O8,mp-1211701,3.3843,-0.49513942,0.0,pf-15751,"{19: 2, 37: 1, 39: 1, 23: 2, 8: 8}","[8, 19, 23, 37, 39]",88192232371391,K2Rb1Y1V2O8
K2RbLaV2O8,mp-1211738,3.4692,-0.06165405,0.0,pf-5289,"{19: 2, 37: 1, 57: 1, 23: 2, 8: 8}","[8, 19, 23, 37, 57]",88192232371571,K2Rb1La1V2O8
K2RbPrV2O8,mp-1211736,3.4240000000000004,-0.60401852,0.0,pf-14574,"{19: 2, 37: 1, 59: 1, 23: 2, 8: 8}","[8, 19, 23, 37, 59]",88192232371591,K2Rb1Pr1V2O8
K2RbNdV2O8,mp-1211725,3.4296,-0.6284054,0.0,pf-4057,"{19: 2, 37: 1, 60: 1, 23: 2, 8: 8}","[8, 19, 23, 37, 60]",88192232371601,K2Rb1Nd1V2O8
K2RbSmV2O8,mp-1211767,3.1515,-0.40665226,0.0,pf-35499,"{19: 2, 37: 1, 62: 1, 23: 2, 8: 8}","[8, 19, 23, 37, 62]",88192232371621,K2Rb1Sm1V2O8
K2RbGdV2O8,mp-21331,3.1889000000000003,-0.5068716,0.0,icsd-39370,"{19: 2, 37: 1, 64: 1, 23: 2, 8: 8}","[8, 19, 23, 37, 64]",88192232371641,K2Rb1Gd1V2O8
K2RbTbV2O8,mp-19428,3.1271,-0.42871063,0.0,icsd-39369,"{19: 2, 37: 1, 65: 1, 23: 2, 8: 8}","[8, 19, 23, 37, 65]",88192232371651,K2Rb1Tb1V2O8
K2RbDyV2O8,mp-1211702,3.4091,-0.50493891,0.0,pf-14484,"{19: 2, 37: 1, 66: 1, 23: 2, 8: 8}","[8, 19, 23, 37, 66]",88192232371661,K2Rb1Dy1V2O8
K2RbHoV2O8,mp-1211709,3.3687,-0.51094855,0.0,pf-3970,"{19: 2, 37: 1, 67: 1, 23: 2, 8: 8}","[8, 19, 23, 37, 67]",88192232371671,K2Rb1Ho1V2O8
K2RbErV2O8,mp-1211720,3.4177999999999997,-0.50266165,0.0,pf-35417,"{19: 2, 37: 1, 68: 1, 23: 2, 8: 8}","[8, 19, 23, 37, 68]",88192232371681,K2Rb1Er1V2O8
K2RbTmV2O8,mp-1211717,3.369,-0.45741436,0.0,pf-24909,"{19: 2, 37: 1, 69: 1, 23: 2, 8: 8}","[8, 19, 23, 37, 69]",88192232371691,K2Rb1Tm1V2O8
K2RbLuV2O8,mp-1211699,3.3743,-0.46200241,0.0,pf-36834,"{19: 2, 37: 1, 71: 1, 23: 2, 8: 8}","[8, 19, 23, 37, 71]",88192232371711,K2Rb1Lu1V2O8
CsK2LaV2O8,mp-1213137,3.7121000000000004,4.42139705,0.0,pf-20456,"{55: 1, 19: 2, 57: 1, 23: 2, 8: 8}","[8, 19, 23, 55, 57]",88192232551571,Cs1K2La1V2O8
K2V3O8,mp-16787,1.7249,0.12678178,0.0,icsd-1925,"{19: 2, 23: 3, 8: 8}","[8, 19, 23]",88192233,K2V3O8
K2Th(AsO4)2,mp-1195548,3.8900999999999994,4.62588214,0.0,icsd-251541,"{19: 2, 90: 1, 33: 2, 8: 8}","[8, 19, 33, 90]",88192332901,K2Th1As2O8
K3ScV2O8,mp-1104363,3.0893,0.03091415,0.0,icsd-248844,"{19: 3, 21: 1, 23: 2, 8: 8}","[8, 19, 21, 23]",88193211232,K3Sc1V2O8
K3YV2O8,mp-1105034,3.4086,-0.44461146,0.0,icsd-248843,"{19: 3, 39: 1, 23: 2, 8: 8}","[8, 19, 23, 39]",88193232391,K3Y1V2O8
K3NdV2O8,mp-16799,3.6565,-0.07859228,0.0,icsd-84234,"{19: 3, 60: 1, 23: 2, 8: 8}","[8, 19, 23, 60]",88193232601,K3Nd1V2O8
K3HoV2O8,mp-1104967,3.4261,-0.53985487,0.0,icsd-248848,"{19: 3, 67: 1, 23: 2, 8: 8}","[8, 19, 23, 67]",88193232671,K3Ho1V2O8
K3ErV2O8,mp-1104228,3.4218,-0.47952233,0.0,icsd-248847,"{19: 3, 68: 1, 23: 2, 8: 8}","[8, 19, 23, 68]",88193232681,K3Er1V2O8
K3TmV2O8,mp-1104265,3.4169,-0.55925972,0.0,icsd-248850,"{19: 3, 69: 1, 23: 2, 8: 8}","[8, 19, 23, 69]",88193232691,K3Tm1V2O8
K3V3O8,mp-18761,1.5455999999999999,0.89494649,0.0,icsd-100782,"{19: 3, 23: 3, 8: 8}","[8, 19, 23]",88193233,K3V3O8
K3La(AsO4)2,mp-975577,3.8820999999999994,1.11931283,0.0,icsd-421979,"{19: 3, 57: 1, 33: 2, 8: 8}","[8, 19, 33, 57]",88193332571,K3La1As2O8
K3NbO8,mp-14175,2.3973,0.5527491,0.0,icsd-30405,"{19: 3, 41: 1, 8: 8}","[8, 19, 41]",88193411,K3Nb1O8
K8Ti5P2(O4F11)2,mp-684010,3.1144,-1.24764997,0.0,icsd-173308,"{19: 8, 22: 5, 15: 2, 8: 8, 9: 22}","[8, 9, 15, 19, 22]",88922152198225,K8Ti5P2O8F22
KFe2P3(O4F3)2,mp-1205183,2.4313000000000002,-0.04102093,0.0,icsd-425625,"{19: 1, 26: 2, 15: 3, 8: 8, 9: 6}","[8, 9, 15, 19, 26]",8896153191262,K1Fe2P3O8F6
K3NaRe2O9,mp-541393,1.8230999999999997,0.72765724,0.0,icsd-73300,"{19: 3, 11: 1, 75: 2, 8: 9}","[8, 11, 19, 75]",89111193752,K3Na1Re2O9
K3NaOs2O9,mp-1194433,0.0,1.72885855,0.0,icsd-423654,"{19: 3, 11: 1, 76: 2, 8: 9}","[8, 11, 19, 76]",89111193762,K3Na1Os2O9
K2MoP2O9,mp-542210,3.0343999999999998,-0.30874076,0.0,icsd-281295,"{19: 2, 42: 1, 15: 2, 8: 9}","[8, 15, 19, 42]",89152192421,K2Mo1P2O9
K2P2WO9,mp-561311,4.0835,-0.4931059,0.0,icsd-83523,"{19: 2, 15: 2, 74: 1, 8: 9}","[8, 15, 19, 74]",89152192741,K2P2W1O9
K3NbP2O9,mp-554572,2.8040000000000003,0.16431849,0.0,icsd-72873,"{19: 3, 41: 1, 15: 2, 8: 9}","[8, 15, 19, 41]",89152193411,K3Nb1P2O9
KCa(PO3)3,mp-11625,5.0471,0.05979124,0.0,icsd-281588,"{19: 1, 20: 1, 15: 3, 8: 9}","[8, 15, 19, 20]",89153191201,K1Ca1P3O9
KMn(PO3)3,mp-1211527,4.0551,1.0916672,0.0,pf-10904,"{19: 1, 25: 1, 15: 3, 8: 9}","[8, 15, 19, 25]",89153191251,K1Mn1P3O9
KCo(PO3)3,mp-1192408,0.0,1.90983691,0.0,icsd-193216,"{19: 1, 27: 1, 15: 3, 8: 9}","[8, 15, 19, 27]",89153191271,K1Co1P3O9
KCd(PO3)3,mp-1211746,4.1305000000000005,4.08778326,0.0,pf-396,"{19: 1, 48: 1, 15: 3, 8: 9}","[8, 15, 19, 48]",89153191481,K1Cd1P3O9
KHg(PO3)3,mp-14469,3.0374999999999996,-0.01118471,0.0,icsd-61239,"{19: 1, 80: 1, 15: 3, 8: 9}","[8, 15, 19, 80]",89153191801,K1Hg1P3O9
KVS2O9,mp-555364,1.8157999999999999,-0.38060742,0.0,icsd-36657,"{19: 1, 23: 1, 16: 2, 8: 9}","[8, 16, 19, 23]",89162191231,K1V1S2O9
KV3Ge2O9,mp-1192668,1.6320999999999999,2.37731489,0.0,icsd-187490,"{19: 1, 23: 3, 32: 2, 8: 9}","[8, 19, 23, 32]",89191233322,K1V3Ge2O9
KAsW2O9,mp-1198481,2.3938,-0.26314884,0.0,icsd-426080,"{19: 1, 33: 1, 74: 2, 8: 9}","[8, 19, 33, 74]",89191331742,K1As1W2O9
KBi6BrO9,mp-555393,2.3298,2.83709898,0.0,icsd-408654,"{19: 1, 83: 6, 35: 1, 8: 9}","[8, 19, 35, 83]",89191351836,K1Bi6Br1O9
KBi6IO9,mp-558501,2.2881000000000005,3.19660882,0.0,icsd-402605,"{19: 1, 83: 6, 53: 1, 8: 9}","[8, 19, 53, 83]",89191531836,K1Bi6I1O9
K2SrV3O9,mp-554684,2.12,3.05506144,0.0,icsd-153542,"{19: 2, 38: 1, 23: 3, 8: 9}","[8, 19, 23, 38]",89192233381,K2Sr1V3O9
K2Fe2As2O9,mp-619092,1.8765,0.65888728,0.0,icsd-83625,"{19: 2, 26: 2, 33: 2, 8: 9}","[8, 19, 26, 33]",89192262332,K2Fe2As2O9
K2MoAs2O9,mp-561554,2.547,-0.58001714,0.0,icsd-83644,"{19: 2, 42: 1, 33: 2, 8: 9}","[8, 19, 33, 42]",89192332421,K2Mo1As2O9
K2UAs2O9,mp-558707,2.4232,-0.09669314,0.0,icsd-245327,"{19: 2, 92: 1, 33: 2, 8: 9}","[8, 19, 33, 92]",89192332921,K2U1As2O9
K2Te4O9,mp-29128,2.7177,2.34084841,0.0,icsd-83843,"{19: 2, 52: 4, 8: 9}","[8, 19, 52]",89192524,K2Te4O9
K3NbAs2O9,mp-560208,3.1394,-0.38972861,0.0,icsd-202980,"{19: 3, 41: 1, 33: 2, 8: 9}","[8, 19, 33, 41]",89193332411,K3Nb1As2O9
K4Ba(GeO3)3,mp-557584,3.4159,-0.21903487,0.0,icsd-100203,"{19: 4, 56: 1, 32: 3, 8: 9}","[8, 19, 32, 56]",89194323561,K4Ba1Ge3O9
K4I2O9,mp-27764,1.9183,0.68832735,0.0,icsd-25694,"{19: 4, 53: 2, 8: 9}","[8, 19, 53]",89194532,K4I2O9
CsK5Ru2O9,mp-654335,0.10209999999999986,1.59168186,0.0,icsd-72333,"{55: 1, 19: 5, 44: 2, 8: 9}","[8, 19, 44, 55]",89195442551,Cs1K5Ru2O9
K6Se2O9,mp-559613,1.6318000000000001,1.11626525,0.0,icsd-240701,"{19: 6, 34: 2, 8: 9}","[8, 19, 34]",89196342,K6Se2O9
K3Sn5Cl3F10,mp-557665,3.2314,4.37001458,0.0,icsd-170697,"{19: 3, 50: 5, 17: 3, 9: 10}","[9, 17, 19, 50]",910173193505,K3Sn5Cl3F10
KY3F10,mp-2943,6.9409,-1.3449586,0.0,icsd-427144,"{19: 1, 39: 3, 9: 10}","[9, 19, 39]",910191393,K1Y3F10
KTb3F10,mp-17838,6.9502,-1.48838438,0.0,icsd-28214,"{19: 1, 65: 3, 9: 10}","[9, 19, 65]",910191653,K1Tb3F10
KDy3F10,mp-1211612,6.988300000000001,-1.61096466,0.0,pf-30419,"{19: 1, 66: 3, 9: 10}","[9, 19, 66]",910191663,K1Dy3F10
KHo3F10,mp-1211478,7.085,-1.61138689,0.0,pf-40846,"{19: 1, 67: 3, 9: 10}","[9, 19, 67]",910191673,K1Ho3F10
KEr3F10,mp-683945,6.9978,-1.5017112,0.0,icsd-1658,"{19: 1, 68: 3, 9: 10}","[9, 19, 68]",910191683,K1Er3F10
KLu3F10,mp-1211423,7.123200000000001,-1.47640604,0.0,pf-8137,"{19: 1, 71: 3, 9: 10}","[9, 19, 71]",910191713,K1Lu3F10
KBi3F10,mp-1211670,4.4569,0.67431615,0.0,pf-21091,"{19: 1, 83: 3, 9: 10}","[9, 19, 83]",910191833,K1Bi3F10
KF,mp-463,5.949400000000001,-2.78604692,0.0,icsd-52241,"{19: 1, 9: 1}","[9, 19]",91191,K1F1
Cs2KMn3F12,mp-572298,0.8101999999999999,0.04966957,0.0,icsd-83873,"{55: 2, 19: 1, 25: 3, 9: 12}","[9, 19, 25, 55]",912191253552,Cs2K1Mn3F12
K4Mn3F12,mp-561377,0.84,-0.2237603,0.0,icsd-65188,"{19: 4, 25: 3, 9: 12}","[9, 19, 25]",912194253,K4Mn3F12
KSb4F13,mp-27211,4.6612,0.18348519,0.0,icsd-4049,"{19: 1, 51: 4, 9: 13}","[9, 19, 51]",913191514,K1Sb4F13
K4SnSb2F14,mp-558309,4.0907,-0.54277196,0.0,icsd-241228,"{19: 4, 50: 1, 51: 2, 9: 14}","[9, 19, 50, 51]",914194501512,K4Sn1Sb2F14
K5Sc3F14,mp-1211731,6.2149,3.28089304,0.0,pf-23401,"{19: 5, 21: 3, 9: 14}","[9, 19, 21]",914195213,K5Sc3F14
K5Ti3F14,mp-8447,0.0,2.47200312,0.0,icsd-60243,"{19: 5, 22: 3, 9: 14}","[9, 19, 22]",914195223,K5Ti3F14
K5In3F14,mp-1196816,4.6571,2.42182922,0.0,icsd-248085,"{19: 5, 49: 3, 9: 14}","[9, 19, 49]",914195493,K5In3F14
KI3F16,mp-28634,4.1785,-1.64752652,0.0,icsd-66121,"{19: 1, 53: 3, 9: 16}","[9, 19, 53]",916191533,K1I3F16
KCuSb3F18,mp-1195095,0.2823000000000002,-2.17612317,0.0,icsd-428042,"{19: 1, 29: 1, 51: 3, 9: 18}","[9, 19, 29, 51]",918191291513,K1Cu1Sb3F18
KZnAs3F18,mp-1194994,4.3172,-3.90935458,0.0,icsd-428045,"{19: 1, 30: 1, 33: 3, 9: 18}","[9, 19, 30, 33]",918191301333,K1Zn1As3F18
K3Hf4Ag2F23,mp-1211819,0.6645,-0.8395565,0.0,pf-10479,"{19: 3, 72: 4, 47: 2, 9: 23}","[9, 19, 47, 72]",923193472724,K3Hf4Ag2F23
KSbClF3,mp-23634,4.4254,0.07737951,0.0,icsd-4048,"{19: 1, 51: 1, 17: 1, 9: 3}","[9, 17, 19, 51]",93171191511,K1Sb1Cl1F3
KF3,mp-867934,0.09240000000000004,-3.91580577,0.0,icsd-14139,"{19: 1, 9: 3}","[9, 19]",93191,K1F3
KVF3,mp-557257,2.0758999999999994,2.32983132,0.0,icsd-28145,"{19: 1, 23: 1, 9: 3}","[9, 19, 23]",93191231,K1V1F3
KCrF3,mp-556365,1.9672000000000003,1.51577598,0.0,icsd-169764,"{19: 1, 24: 1, 9: 3}","[9, 19, 24]",93191241,K1Cr1F3
KMnF3,mp-1205353,2.4058,0.73037579,0.0,icsd-31820,"{19: 1, 25: 1, 9: 3}","[9, 19, 25]",93191251,K1Mn1F3
KCuF3,mp-669347,0.0,0.79053481,0.0,icsd-67444,"{19: 1, 29: 1, 9: 3}","[9, 19, 29]",93191291,K1Cu1F3
KZnF3,mp-5878,3.6954000000000002,-1.19857267,0.0,icsd-73527,"{19: 1, 30: 1, 9: 3}","[9, 19, 30]",93191301,K1Zn1F3
KAgF3,mp-1205357,0.0,-0.94828072,0.0,icsd-189150,"{19: 1, 47: 1, 9: 3}","[9, 19, 47]",93191471,K1Ag1F3
KCdF3,mp-9628,3.3539,-2.17478512,0.0,icsd-201329,"{19: 1, 48: 1, 9: 3}","[9, 19, 48]",93191481,K1Cd1F3
KSnF3,mp-28774,3.5114,0.36938523,0.0,icsd-72472,"{19: 1, 50: 1, 9: 3}","[9, 19, 50]",93191501,K1Sn1F3
KHgF3,mp-7483,0.6082000000000001,-1.16605198,0.0,icsd-15170,"{19: 1, 80: 1, 9: 3}","[9, 19, 80]",93191801,K1Hg1F3
KTiF4,mp-21639,0.0,2.65337855,0.0,icsd-8007,"{19: 1, 22: 1, 9: 4}","[9, 19, 22]",94191221,K1Ti1F4
KVF4,mp-560997,1.9296000000000002,-0.46916194,0.0,icsd-419509,"{19: 1, 23: 1, 9: 4}","[9, 19, 23]",94191231,K1V1F4
KCrF4,mp-5053,2.9232,-1.53561204,0.0,icsd-60896,"{19: 1, 24: 1, 9: 4}","[9, 19, 24]",94191241,K1Cr1F4
KMnF4,mp-558116,2.1486,-1.55588538,0.0,icsd-73590,"{19: 1, 25: 1, 9: 4}","[9, 19, 25]",94191251,K1Mn1F4
KFeF4,mp-555631,2.7500999999999998,-2.4699013,0.0,icsd-60616,"{19: 1, 26: 1, 9: 4}","[9, 19, 26]",94191261,K1Fe1F4
KGaF4,mp-15408,5.2165,-2.95395794,0.0,icsd-203108,"{19: 1, 31: 1, 9: 4}","[9, 19, 31]",94191311,K1Ga1F4
KBrF4,mp-23550,3.2009,-1.86303187,0.0,icsd-16700,"{19: 1, 35: 1, 9: 4}","[9, 19, 35]",94191351,K1Br1F4
KYF4,mp-28726,6.9097,-2.61578777,0.0,icsd-66701,"{19: 1, 39: 1, 9: 4}","[9, 19, 39]",94191391,K1Y1F4
KAgF4,mp-7387,1.7377999999999998,-3.38946766,0.0,icsd-72715,"{19: 1, 47: 1, 9: 4}","[9, 19, 47]",94191471,K1Ag1F4
KSbF4,mp-5079,4.4258,-0.29479616,0.0,icsd-200572,"{19: 1, 51: 1, 9: 4}","[9, 19, 51]",94191511,K1Sb1F4
KLaF4,mp-1211260,6.1827,5.88228533,0.0,pf-10113,"{19: 1, 57: 1, 9: 4}","[9, 19, 57]",94191571,K1La1F4
KCeF4,mp-504644,0.040000000000000036,4.45647306,0.0,icsd-23229,"{19: 1, 58: 1, 9: 4}","[9, 19, 58]",94191581,K1Ce1F4
KPrF4,mp-18040,7.1334,-1.62534214,0.0,icsd-281289,"{19: 1, 59: 1, 9: 4}","[9, 19, 59]",94191591,K1Pr1F4
KNdF4,mp-1211343,7.126,-1.70931925,0.0,pf-10202,"{19: 1, 60: 1, 9: 4}","[9, 19, 60]",94191601,K1Nd1F4
KSmF4,mp-17697,6.9859,-1.66894632,0.0,icsd-20051,"{19: 1, 62: 1, 9: 4}","[9, 19, 62]",94191621,K1Sm1F4
KEuF4,mp-1211862,0.020000000000000018,-1.5120621,0.0,pf-39433,"{19: 1, 63: 1, 9: 4}","[9, 19, 63]",94191631,K1Eu1F4
KGdF4,mp-1211415,4.3628,2.587993,0.0,pf-20618,"{19: 1, 64: 1, 9: 4}","[9, 19, 64]",94191641,K1Gd1F4
KHoF4,mp-1202279,6.754300000000001,3.97432354,0.0,icsd-186998,"{19: 1, 67: 1, 9: 4}","[9, 19, 67]",94191671,K1Ho1F4
KErF4,mp-1201270,6.6748,3.88385564,0.0,icsd-186997,"{19: 1, 68: 1, 9: 4}","[9, 19, 68]",94191681,K1Er1F4
KTmF4,mp-1202753,6.8499,-2.55692786,0.0,icsd-186999,"{19: 1, 69: 1, 9: 4}","[9, 19, 69]",94191691,K1Tm1F4
KAuF4,mp-5309,2.3647,-2.52492803,0.0,icsd-10327,"{19: 1, 79: 1, 9: 4}","[9, 19, 79]",94191791,K1Au1F4
KTlF4,mp-27209,2.3468,-1.70444727,0.0,icsd-4046,"{19: 1, 81: 1, 9: 4}","[9, 19, 81]",94191811,K1Tl1F4
K2MnF4,mp-557610,2.8070000000000004,0.34329632,0.0,icsd-23183,"{19: 2, 25: 1, 9: 4}","[9, 19, 25]",94192251,K2Mn1F4
K2CuF4,mp-8388,0.5601,0.15601441,0.0,icsd-174116,"{19: 2, 29: 1, 9: 4}","[9, 19, 29]",94192291,K2Cu1F4
K2ZnF4,mp-9583,4.3016000000000005,-1.67227607,0.0,icsd-100298,"{19: 2, 30: 1, 9: 4}","[9, 19, 30]",94192301,K2Zn1F4
K2PdF4,mp-28163,1.8732000000000002,-1.02281075,0.0,icsd-33888,"{19: 2, 46: 1, 9: 4}","[9, 19, 46]",94192461,K2Pd1F4
K2AgF4,mp-1104293,0.6126,-1.43579802,0.0,icsd-421461,"{19: 2, 47: 1, 9: 4}","[9, 19, 47]",94192471,K2Ag1F4
K2TeClF5,mp-554532,4.3619,-0.87504258,0.0,icsd-201603,"{19: 2, 52: 1, 17: 1, 9: 5}","[9, 17, 19, 52]",95171192521,K2Te1Cl1F5
KZrF5,mp-556689,5.5642,-2.01763917,0.0,icsd-83584,"{19: 1, 40: 1, 9: 5}","[9, 19, 40]",95191401,K1Zr1F5
KPd2F5,mp-28758,0.0,0.05318179,0.0,icsd-72300,"{19: 1, 46: 2, 9: 5}","[9, 19, 46]",95191462,K1Pd2F5
KTeF5,mp-4648,5.2046,-1.54827002,0.0,icsd-26051,"{19: 1, 52: 1, 9: 5}","[9, 19, 52]",95191521,K1Te1F5
KTbF5,mp-623088,0.0,-2.41469518,0.0,icsd-84289,"{19: 1, 65: 1, 9: 5}","[9, 19, 65]",95191651,K1Tb1F5
K2CrF5,mp-1212394,3.8102,-1.56292217,0.0,pf-24216,"{19: 2, 24: 1, 9: 5}","[9, 19, 24]",95192241,K2Cr1F5
K2FeF5,mp-1205367,2.9703,-2.36012479,0.0,icsd-192506,"{19: 2, 26: 1, 9: 5}","[9, 19, 26]",95192261,K2Fe1F5
CsK2PdF5,mp-8959,1.8660999999999999,-1.20821372,0.0,icsd-72301,"{55: 1, 19: 2, 46: 1, 9: 5}","[9, 19, 46, 55]",95192461551,Cs1K2Pd1F5
K2SbF5,mp-1205394,4.6217,-0.45309925,0.0,icsd-39634,"{19: 2, 51: 1, 9: 5}","[9, 19, 51]",95192511,K2Sb1F5
K2EuF5,mp-1212263,0.15880000000000005,-1.9182411,0.0,pf-14107,"{19: 2, 63: 1, 9: 5}","[9, 19, 63]",95192631,K2Eu1F5
K2GdF5,mp-642655,0.24239999999999995,-0.6541292,0.0,icsd-60085,"{19: 2, 64: 1, 9: 5}","[9, 19, 64]",95192641,K2Gd1F5
K2TbF5,mp-1211691,6.793,4.26182653,0.0,pf-35055,"{19: 2, 65: 1, 9: 5}","[9, 19, 65]",95192651,K2Tb1F5
K2DyF5,mp-1212010,6.7515,4.17831519,0.0,pf-17740,"{19: 2, 66: 1, 9: 5}","[9, 19, 66]",95192661,K2Dy1F5
K2HoF5,mp-1212022,7.1033,-2.61994737,0.0,pf-4947,"{19: 2, 67: 1, 9: 5}","[9, 19, 67]",95192671,K2Ho1F5
K2TmF5,mp-1211536,7.114,-2.59777797,0.0,pf-25953,"{19: 2, 69: 1, 9: 5}","[9, 19, 69]",95192691,K2Tm1F5
K2LuF5,mp-1211957,6.7715,-2.58087767,0.0,pf-4887,"{19: 2, 71: 1, 9: 5}","[9, 19, 71]",95192711,K2Lu1F5
K2BiF5,mp-561290,4.7686,-0.8318611,0.0,icsd-418777,"{19: 2, 83: 1, 9: 5}","[9, 19, 83]",95192831,K2Bi1F5
KNaSnF6,mp-555076,5.1714,-2.74078671,0.0,icsd-39590,"{19: 1, 11: 1, 50: 1, 9: 6}","[9, 11, 19, 50]",96111191501,K1Na1Sn1F6
KNaThF6,mp-556741,6.5711,-1.53992524,0.0,icsd-9892,"{19: 1, 11: 1, 90: 1, 9: 6}","[9, 11, 19, 90]",96111191901,K1Na1Th1F6
K2NaScF6,mp-6058,6.749700000000001,-2.54700789,0.0,icsd-22112,"{19: 2, 11: 1, 21: 1, 9: 6}","[9, 11, 19, 21]",96111192211,K2Na1Sc1F6
K2NaTiF6,mp-1111871,0.0,3.04840489,0.0,pf-32985,"{19: 2, 11: 1, 22: 1, 9: 6}","[9, 11, 19, 22]",96111192221,K2Na1Ti1F6
K2NaVF6,mp-1080537,0.0,0.70029962,0.0,icsd-186883,"{19: 2, 11: 1, 23: 1, 9: 6}","[9, 11, 19, 23]",96111192231,K2Na1V1F6
K2NaCrF6,mp-554252,4.2057,-1.1508548,0.0,icsd-40965,"{19: 2, 11: 1, 24: 1, 9: 6}","[9, 11, 19, 24]",96111192241,K2Na1Cr1F6
K2NaMnF6,mp-1079339,1.5314,-0.75197735,0.0,icsd-61117,"{19: 2, 11: 1, 25: 1, 9: 6}","[9, 11, 19, 25]",96111192251,K2Na1Mn1F6
K2NaFeF6,mp-558674,4.0922,-1.98440117,0.0,icsd-61277,"{19: 2, 11: 1, 26: 1, 9: 6}","[9, 11, 19, 26]",96111192261,K2Na1Fe1F6
K2NaCuF6,mp-13797,0.7248,-1.37409899,0.0,icsd-22111,"{19: 2, 11: 1, 29: 1, 9: 6}","[9, 11, 19, 29]",96111192291,K2Na1Cu1F6
K2NaGaF6,mp-1111106,5.952,-2.39209135,0.0,pf-14816,"{19: 2, 11: 1, 31: 1, 9: 6}","[9, 11, 19, 31]",96111192311,K2Na1Ga1F6
K2NaMoF6,mp-556487,3.9023,-0.07301951,0.0,icsd-15777,"{19: 2, 11: 1, 42: 1, 9: 6}","[9, 11, 19, 42]",96111192421,K2Na1Mo1F6
K2NaRhF6,mp-14039,2.0000999999999998,0.0582441,0.0,icsd-27342,"{19: 2, 11: 1, 45: 1, 9: 6}","[9, 11, 19, 45]",96111192451,K2Na1Rh1F6
K2NaInF6,mp-6686,5.2445,-2.0659356,0.0,icsd-23430,"{19: 2, 11: 1, 49: 1, 9: 6}","[9, 11, 19, 49]",96111192491,K2Na1In1F6
K2NaTlF6,mp-13798,3.6205,-2.10251306,0.0,icsd-22114,"{19: 2, 11: 1, 81: 1, 9: 6}","[9, 11, 19, 81]",96111192811,K2Na1Tl1F6
KPF6,mp-4608,7.0367999999999995,-2.35807651,0.0,icsd-56256,"{19: 1, 15: 1, 9: 6}","[9, 15, 19]",96151191,K1P1F6
K2Cr3(ClF3)2,mp-555898,2.1231,1.06016998,0.0,icsd-60897,"{19: 2, 24: 3, 17: 2, 9: 6}","[9, 17, 19, 24]",96172192243,K2Cr3Cl2F6
KRb2ScF6,mp-6500,6.5991,-2.78547201,0.0,icsd-81680,"{19: 1, 37: 2, 21: 1, 9: 6}","[9, 19, 21, 37]",96191211372,K1Rb2Sc1F6
Cs2KScF6,mp-1113131,6.8201,-2.0305513,0.0,pf-36540,"{55: 2, 19: 1, 21: 1, 9: 6}","[9, 19, 21, 55]",96191211552,Cs2K1Sc1F6
KRb2TiF6,mp-6074,0.0,2.89097214,0.0,icsd-42142,"{19: 1, 37: 2, 22: 1, 9: 6}","[9, 19, 22, 37]",96191221372,K1Rb2Ti1F6
Cs2KTiF6,mp-6178,0.0,3.40982283,0.0,icsd-67146,"{55: 2, 19: 1, 22: 1, 9: 6}","[9, 19, 22, 55]",96191221552,Cs2K1Ti1F6
KRb2VF6,mp-557411,0.0,0.5407481,0.0,icsd-27345,"{19: 1, 37: 2, 23: 1, 9: 6}","[9, 19, 23, 37]",96191231372,K1Rb2V1F6
Cs2KVF6,mp-558895,0.0,1.07498258,0.0,icsd-27344,"{55: 2, 19: 1, 23: 1, 9: 6}","[9, 19, 23, 55]",96191231552,Cs2K1V1F6
KCrF6,mp-20076,1.3980000000000001,-3.07525536,0.0,icsd-418672,"{19: 1, 24: 1, 9: 6}","[9, 19, 24]",96191241,K1Cr1F6
KRb2CrF6,mp-1203661,4.1522,-1.37356098,0.0,icsd-416607,"{19: 1, 37: 2, 24: 1, 9: 6}","[9, 19, 24, 37]",96191241372,K1Rb2Cr1F6
Cs2KCrF6,mp-560956,4.287,-0.91116991,0.0,icsd-9705,"{55: 2, 19: 1, 24: 1, 9: 6}","[9, 19, 24, 55]",96191241552,Cs2K1Cr1F6
KTl2CrF6,mp-1205672,3.5979,0.21137568,0.0,pf-28835,"{19: 1, 81: 2, 24: 1, 9: 6}","[9, 19, 24, 81]",96191241812,K1Tl2Cr1F6
KRb2MnF6,mp-1205717,1.7046999999999999,-1.06311945,0.0,pf-9511,"{19: 1, 37: 2, 25: 1, 9: 6}","[9, 19, 25, 37]",96191251372,K1Rb2Mn1F6
Cs2KMnF6,mp-560861,1.7435,-0.40957645,0.0,icsd-91036,"{55: 2, 19: 1, 25: 1, 9: 6}","[9, 19, 25, 55]",96191251552,Cs2K1Mn1F6
KRb2FeF6,mp-561067,4.140000000000001,-2.15628277,0.0,icsd-40967,"{19: 1, 37: 2, 26: 1, 9: 6}","[9, 19, 26, 37]",96191261372,K1Rb2Fe1F6
Cs2KFeF6,mp-559454,4.095599999999999,-1.64622742,0.0,icsd-42144,"{55: 2, 19: 1, 26: 1, 9: 6}","[9, 19, 26, 55]",96191261552,Cs2K1Fe1F6
KRb2CoF6,mp-560071,0.0,-0.60317844,0.0,icsd-42147,"{19: 1, 37: 2, 27: 1, 9: 6}","[9, 19, 27, 37]",96191271372,K1Rb2Co1F6
Cs2KCoF6,mp-540729,3.0136000000000003,-0.97885019,0.0,icsd-6037,"{55: 2, 19: 1, 27: 1, 9: 6}","[9, 19, 27, 55]",96191271552,Cs2K1Co1F6