formula,material_id,band_gap,efermi,energy_above_hull,database_IDs,comp_atoms,sorted_keys_comp_atoms,comp_number,new_formula
K2NaH10IO10,mp-695963,2.5046,-0.20443465,0.0,icsd-69554,"{19: 2, 11: 1, 1: 10, 53: 1, 8: 10}","[1, 8, 11, 19, 53]",110810111192531,K2Na1H10I1O10
K2NaGaP2,mp-9666,1.3078999999999998,1.8715992,0.0,icsd-300112,"{19: 2, 11: 1, 31: 1, 15: 2}","[11, 15, 19, 31]",111152192311,K2Na1Ga1P2
K2NaInP2,mp-21511,1.0504000000000002,2.37766188,0.0,icsd-300132,"{19: 2, 11: 1, 49: 1, 15: 2}","[11, 15, 19, 49]",111152192491,K2Na1In1P2
KNaS,mp-28383,2.4851,0.65054934,0.0,icsd-62658,"{19: 1, 11: 1, 16: 1}","[11, 16, 19]",111161191,K1Na1S1
K2NaCrCl6,mp-1206266,1.3875000000000002,0.3681124,0.0,pf-40485,"{19: 2, 11: 1, 24: 1, 17: 6}","[11, 17, 19, 24]",111176192241,K2Na1Cr1Cl6
K3NaMnCl6,mp-1191678,2.4629000000000003,0.75205591,0.0,icsd-290109,"{19: 3, 11: 1, 25: 1, 17: 6}","[11, 17, 19, 25]",111176193251,K3Na1Mn1Cl6
KNaSe,mp-28595,2.0175,0.32915487,0.0,icsd-67278,"{19: 1, 11: 1, 34: 1}","[11, 19, 34]",111191341,K1Na1Se1
KNaTe,mp-8755,1.9491,1.03597546,0.0,icsd-67276,"{19: 1, 11: 1, 52: 1}","[11, 19, 52]",111191521,K1Na1Te1
K2NaGaAs2,mp-9676,0.8055000000000001,1.53270087,0.0,icsd-300129,"{19: 2, 11: 1, 31: 1, 33: 2}","[11, 19, 31, 33]",111192311332,K2Na1Ga1As2
K2NaInAs2,mp-21510,0.6228999999999998,2.0740857,0.0,icsd-300137,"{19: 2, 11: 1, 49: 1, 33: 2}","[11, 19, 33, 49]",111192332491,K2Na1In1As2
K2NaInSb2,mp-505767,0.5808,2.73102345,0.0,icsd-77181,"{19: 2, 11: 1, 49: 1, 51: 2}","[11, 19, 49, 51]",111192491512,K2Na1In1Sb2
K3NaSn3Se8,mp-628185,1.4211000000000003,1.32425782,0.0,icsd-280286,"{19: 3, 11: 1, 50: 3, 34: 8}","[11, 19, 34, 50]",111193348503,K3Na1Sn3Se8
K5Na(Ti2Se9)3,mp-569806,0.8225000000000002,1.63417609,0.0,icsd-87730,"{19: 5, 11: 1, 22: 6, 34: 27}","[11, 19, 22, 34]",1111952263427,K5Na1Ti6Se27
K7NaGe8,mp-1211990,1.3336,1.18300453,0.0,pf-29571,"{19: 7, 11: 1, 32: 8}","[11, 19, 32]",111197328,K7Na1Ge8
K6Na14Tl18Cd,mp-1211804,0.0019999999999997797,2.96433496,0.0,pf-28325,"{19: 6, 11: 14, 81: 18, 48: 1}","[11, 19, 48, 81]",11141964818118,K6Na14Tl18Cd1
KHS,mp-634676,3.2359,-0.45855111,0.0,icsd-33987,"{19: 1, 1: 1, 16: 1}","[1, 16, 19]",11161191,K1H1S1
KH,mp-24084,3.4330999999999996,-1.58684472,0.0,icsd-638207,"{19: 1, 1: 1}","[1, 19]",11191,K1H1
K3Na2SnP3,mp-16847,0.9637000000000002,2.03486623,0.0,icsd-50532,"{19: 3, 11: 2, 50: 1, 15: 3}","[11, 15, 19, 50]",112153193501,K3Na2Sn1P3
KNa2Sb,mp-15724,0.6720999999999999,2.22797509,0.0,icsd-44332,"{19: 1, 11: 2, 51: 1}","[11, 19, 51]",112191511,K1Na2Sb1
K3Na2SnAs3,mp-18447,0.5786000000000002,1.72454266,0.0,icsd-40560,"{19: 3, 11: 2, 50: 1, 33: 3}","[11, 19, 33, 50]",112193333501,K3Na2Sn1As3
K3Na2SnBi3,mp-568329,0.0026999999999999247,2.038226,0.0,icsd-50534,"{19: 3, 11: 2, 50: 1, 83: 3}","[11, 19, 50, 83]",112193501833,K3Na2Sn1Bi3
K3(Na13In24)2,mp-684127,0.0,4.67788659,0.0,icsd-165393,"{19: 3, 11: 26, 49: 48}","[11, 19, 49]",11261934948,K3Na26In48
K6In3H12(N8O27)2,mp-1199428,0.05359999999999998,-0.98099461,0.0,icsd-417340,"{19: 6, 49: 3, 1: 12, 7: 16, 8: 54}","[1, 7, 8, 19, 49]",112716854196493,K6In3H12N16O54
K2Sn(H2N)6,mp-643371,2.4109000000000003,-0.26271824,0.0,icsd-79985,"{19: 2, 50: 1, 1: 12, 7: 6}","[1, 7, 19, 50]",11276192501,K2Sn1H12N6
K2CoH12(SO7)2,mp-542902,0.6016000000000001,1.56266295,0.0,icsd-50582,"{19: 2, 27: 1, 1: 12, 16: 2, 8: 14}","[1, 8, 16, 19, 27]",112814162192271,K2Co1H12S2O14
K2ZnH12(SeO7)2,mp-1197205,3.6817,2.22206421,0.0,icsd-710001,"{19: 2, 30: 1, 1: 12, 34: 2, 8: 14}","[1, 8, 19, 30, 34]",112814192301342,K2Zn1H12Se2O14
K2Zr2ZnH12(OF2)6,mp-707219,6.710699999999999,-1.98822472,0.0,icsd-39734,"{19: 2, 40: 2, 30: 1, 1: 12, 8: 6, 9: 12}","[1, 8, 9, 19, 30, 40]",11286912192301402,K2Zr2Zn1H12O6F12
K6Na3GaSb4,mp-6112,0.6974,1.72406094,0.0,icsd-87593,"{19: 6, 11: 3, 31: 1, 51: 4}","[11, 19, 31, 51]",113196311514,K6Na3Ga1Sb4
K2AsH13O10,mp-1196329,4.3998,-2.10668814,0.0,icsd-424696,"{19: 2, 33: 1, 1: 13, 8: 10}","[1, 8, 19, 33]",113810192331,K2As1H13O10
KNa4GeAs3,mp-16921,0.6355999999999999,1.38881797,0.0,icsd-300204,"{19: 1, 11: 4, 32: 1, 33: 3}","[11, 19, 32, 33]",114191321333,K1Na4Ge1As3
K2Na4ZnSn2,mp-1211956,0.5203999999999998,1.80326125,0.0,pf-38505,"{19: 2, 11: 4, 30: 1, 50: 2}","[11, 19, 30, 50]",114192301502,K2Na4Zn1Sn2
KHCO3,mp-634431,4.9811,-0.73550765,0.0,icsd-157168,"{19: 1, 1: 1, 6: 1, 8: 3}","[1, 6, 8, 19]",116183191,K1H1C1O3
K5H(CN2)2,mp-777297,3.8504,0.14893068,0.0,icsd-409559,"{19: 5, 1: 1, 6: 2, 7: 4}","[1, 6, 7, 19]",116274195,K5H1C2N4
KSrAs(H4O3)4,mp-703559,4.3016,-1.54701569,0.0,icsd-87465,"{19: 1, 38: 1, 33: 1, 1: 16, 8: 12}","[1, 8, 19, 33, 38]",116812191331381,K1Sr1As1H16O12
KPHNO2,mp-23942,5.2353000000000005,0.1074085,0.0,icsd-50481,"{19: 1, 15: 1, 1: 1, 7: 1, 8: 2}","[1, 7, 8, 15, 19]",117182151191,K1P1H1N1O2
KMnP3HO10,mp-510562,0.7785000000000001,0.41508668,0.0,icsd-155716,"{19: 1, 25: 1, 15: 3, 1: 1, 8: 10}","[1, 8, 15, 19, 25]",11810153191251,K1Mn1P3H1O10
KSmP3HO10,mp-542266,5.4649,0.44571958,0.0,icsd-96665,"{19: 1, 62: 1, 15: 3, 1: 1, 8: 10}","[1, 8, 15, 19, 62]",11810153191621,K1Sm1P3H1O10
K3HS3O11,mp-1200107,5.1696,4.48474778,0.0,icsd-249740,"{19: 3, 1: 1, 16: 3, 8: 11}","[1, 8, 16, 19]",11811163193,K3H1S3O11
K2HBrO,mp-24589,3.5348,-1.11584611,0.0,icsd-78734,"{19: 2, 1: 1, 35: 1, 8: 1}","[1, 8, 19, 35]",1181192351,K2H1Br1O1
KFe2H(SeO3)4,mp-735586,1.8546,0.71974262,0.0,icsd-81567,"{19: 1, 26: 2, 1: 1, 34: 4, 8: 12}","[1, 8, 19, 26, 34]",11812191262344,K1Fe2H1Se4O12
K3Cu2P4HO14,mp-695887,0.0,1.24832629,0.0,icsd-62742,"{19: 3, 29: 2, 15: 4, 1: 1, 8: 14}","[1, 8, 15, 19, 29]",11814154193292,K3Cu2P4H1O14
K23Na8(CdIn4)12,mp-633668,0.0,3.76367167,0.0,icsd-240053,"{19: 23, 11: 8, 48: 12, 49: 48}","[11, 19, 48, 49]",118192348124948,K23Na8Cd12In48
K3NbHOF7,mp-696651,4.1033,-2.81065764,0.0,icsd-26620,"{19: 3, 41: 1, 1: 1, 8: 1, 9: 7}","[1, 8, 9, 19, 41]",118197193411,K3Nb1H1O1F7
KPHO3F,mp-758619,5.1767,-1.0106236,0.0,icsd-391178,"{19: 1, 15: 1, 1: 1, 8: 3, 9: 1}","[1, 8, 9, 15, 19]",118391151191,K1P1H1O3F1
K2PHO4,mp-733468,4.5325,-0.05599449,0.0,icsd-74543,"{19: 2, 15: 1, 1: 1, 8: 4}","[1, 8, 15, 19]",1184151192,K2P1H1O4
KHSO4,mp-23800,5.4306,-0.92137235,0.0,icsd-249738,"{19: 1, 1: 1, 16: 1, 8: 4}","[1, 8, 16, 19]",1184161191,K1H1S1O4
KHSeO4,mp-707536,3.5239,-1.39128365,0.0,icsd-85082,"{19: 1, 1: 1, 34: 1, 8: 4}","[1, 8, 19, 34]",1184191341,K1H1Se1O4
KVPHO6,mp-735046,2.422,-0.34511546,0.0,icsd-68549,"{19: 1, 23: 1, 15: 1, 1: 1, 8: 6}","[1, 8, 15, 19, 23]",1186151191231,K1V1P1H1O6
K2HI2ClO6,mp-733853,3.0513,0.66543847,0.0,icsd-86285,"{19: 2, 1: 1, 53: 2, 17: 1, 8: 6}","[1, 8, 17, 19, 53]",1186171192532,K2H1I2Cl1O6
KAs2HO6,mp-1198282,2.7514000000000003,2.56364086,0.0,icsd-172986,"{19: 1, 33: 2, 1: 1, 8: 6}","[1, 8, 19, 33]",1186191332,K1As2H1O6
KH(IO3)2,mp-720407,3.3546000000000005,1.09303926,0.0,icsd-10306,"{19: 1, 1: 1, 53: 2, 8: 6}","[1, 8, 19, 53]",1186191532,K1H1I2O6
KHS2O7,mp-1195297,5.3093,4.21852732,0.0,icsd-428564,"{19: 1, 1: 1, 16: 2, 8: 7}","[1, 8, 16, 19]",1187162191,K1H1S2O7
KVHSe2O7,mp-644015,1.9415000000000002,1.03246053,0.0,icsd-82535,"{19: 1, 23: 1, 1: 1, 34: 2, 8: 7}","[1, 8, 19, 23, 34]",1187191231342,K1V1H1Se2O7
KZn2P2HO8,mp-1193724,3.9897,-0.46361409,0.0,icsd-412588,"{19: 1, 30: 2, 15: 2, 1: 1, 8: 8}","[1, 8, 15, 19, 30]",1188152191302,K1Zn2P2H1O8
K3CaP2HO8,mp-696878,4.9617,0.57197415,0.0,icsd-35344,"{19: 3, 20: 1, 15: 2, 1: 1, 8: 8}","[1, 8, 15, 19, 20]",1188152193201,K3Ca1P2H1O8
K3H(SO4)2,mp-23779,5.4133000000000004,-0.28075909,0.0,icsd-247697,"{19: 3, 1: 1, 16: 2, 8: 8}","[1, 8, 16, 19]",1188162193,K3H1S2O8
KCo2As2HO8,mp-746371,1.8806999999999998,3.56932973,0.0,icsd-81429,"{19: 1, 27: 2, 33: 2, 1: 1, 8: 8}","[1, 8, 19, 27, 33]",1188191272332,K1Co2As2H1O8
K4Na2H18Pd(IO10)2,mp-757218,1.6804000000000001,0.84154434,0.0,icsd-412421,"{19: 4, 11: 2, 1: 18, 46: 1, 53: 2, 8: 20}","[1, 8, 11, 19, 46, 53]",118820112194461532,K4Na2H18Pd1I2O20
KMn2P2HO9,mp-1193430,0.7007000000000001,1.12946554,0.0,icsd-202573,"{19: 1, 25: 2, 15: 2, 1: 1, 8: 9}","[1, 8, 15, 19, 25]",1189152191252,K1Mn2P2H1O9
KH(IF6)2,mp-695892,4.4279,-2.04578174,0.0,icsd-71583,"{19: 1, 1: 1, 53: 2, 9: 12}","[1, 9, 19, 53]",11912191532,K1H1I2F12
K16Na9(Tl6Cd)3,mp-1197369,0.0,2.42129301,0.0,icsd-165229,"{19: 16, 11: 9, 81: 18, 48: 3}","[11, 19, 48, 81]",11919164838118,K16Na9Tl18Cd3
KHF2,mp-23846,6.9658,-3.47002983,0.0,icsd-28833,"{19: 1, 1: 1, 9: 2}","[1, 9, 19]",1192191,K1H1F2
K2TiHF7,mp-1191204,4.7659,-3.65941211,0.0,icsd-187321,"{19: 2, 22: 1, 1: 1, 9: 7}","[1, 9, 19, 22]",1197192221,K2Ti1H1F7
K2ZrHF7,mp-1196802,6.349600000000001,-3.29657078,0.0,icsd-240892,"{19: 2, 40: 1, 1: 1, 9: 7}","[1, 9, 19, 40]",1197192401,K2Zr1H1F7
K3SnHF8,mp-696683,5.1576,-2.99909368,0.0,icsd-26993,"{19: 3, 50: 1, 1: 1, 9: 8}","[1, 9, 19, 50]",1198193501,K3Sn1H1F8
KH2N,mp-24428,2.0676,-0.20540668,0.0,icsd-25619,"{19: 1, 1: 2, 7: 1}","[1, 7, 19]",1271191,K1H2N1
K3GeH2NO3,mp-697540,3.1836,0.17432865,0.0,icsd-79078,"{19: 3, 32: 1, 1: 2, 7: 1, 8: 3}","[1, 7, 8, 19, 32]",127183193321,K3Ge1H2N1O3
K2Mn3V2(HO5)2,mp-762295,1.6717,1.64773097,0.0,icsd-203214,"{19: 2, 25: 3, 23: 2, 1: 2, 8: 10}","[1, 8, 19, 23, 25]",12810192232253,K2Mn3V2H2O10
K2H2Se(IO5)2,mp-1197713,3.7575,0.16388194,0.0,icsd-240671,"{19: 2, 1: 2, 34: 1, 53: 2, 8: 10}","[1, 8, 19, 34, 53]",12810192341532,K2H2Se1I2O10
K3GdGe3(HO5)2,mp-1195258,3.8274,3.22060418,0.0,icsd-193586,"{19: 3, 64: 1, 32: 3, 1: 2, 8: 10}","[1, 8, 19, 32, 64]",12810193323641,K3Gd1Ge3H2O10
K3TbGe3(HO5)2,mp-1194662,3.9615,3.33982849,0.0,icsd-193585,"{19: 3, 65: 1, 32: 3, 1: 2, 8: 10}","[1, 8, 19, 32, 65]",12810193323651,K3Tb1Ge3H2O10
K2CrH2Cl5O,mp-510467,2.3851,-0.81313059,0.0,icsd-415494,"{19: 2, 24: 1, 1: 2, 17: 5, 8: 1}","[1, 8, 17, 19, 24]",1281175192241,K2Cr1H2Cl5O1
K2InH2Cl5O,mp-766966,3.1553999999999998,-0.77102922,0.0,icsd-200970,"{19: 2, 49: 1, 1: 2, 17: 5, 8: 1}","[1, 8, 17, 19, 49]",1281175192491,K2In1H2Cl5O1
KH2I3O,mp-696649,1.9079000000000002,0.42743013,0.0,icsd-26338,"{19: 1, 1: 2, 53: 3, 8: 1}","[1, 8, 19, 53]",1281191533,K1H2I3O1
K2CeH2S3O13,mp-1204865,1.0172999999999999,0.30022322,0.0,icsd-417497,"{19: 2, 58: 1, 1: 2, 16: 3, 8: 13}","[1, 8, 16, 19, 58]",12813163192581,K2Ce1H2S3O13
KFe3As4(HO8)2,mp-1204715,2.508,0.01189293,0.0,icsd-157757,"{19: 1, 26: 3, 33: 4, 1: 2, 8: 16}","[1, 8, 19, 26, 33]",12816191263334,K1Fe3As4H2O16
K3Fe3P4H2O17,mp-720729,2.2497,0.60536545,0.0,icsd-80167,"{19: 3, 26: 3, 15: 4, 1: 2, 8: 17}","[1, 8, 15, 19, 26]",12817154193263,K3Fe3P4H2O17
KHfH2OF5,mp-541298,6.6561,-2.30732342,0.0,icsd-68302,"{19: 1, 72: 1, 1: 2, 8: 1, 9: 5}","[1, 8, 9, 19, 72]",128195191721,K1Hf1H2O1F5
K2VH2OF5,mp-23839,0.2351000000000001,1.42932332,0.0,icsd-59818,"{19: 2, 23: 1, 1: 2, 8: 1, 9: 5}","[1, 8, 9, 19, 23]",128195192231,K2V1H2O1F5
K2MnH2OF5,mp-696630,1.3384999999999998,-0.94648675,0.0,icsd-26071,"{19: 2, 25: 1, 1: 2, 8: 1, 9: 5}","[1, 8, 9, 19, 25]",128195192251,K2Mn1H2O1F5
K2FeH2OF5,mp-696335,2.7881,-2.48667662,0.0,icsd-16090,"{19: 2, 26: 1, 1: 2, 8: 1, 9: 5}","[1, 8, 9, 19, 26]",128195192261,K2Fe1H2O1F5
KP(HO)2,mp-642648,5.1321,-1.03588382,0.0,icsd-59833,"{19: 1, 15: 1, 1: 2, 8: 2}","[1, 8, 15, 19]",1282151191,K1P1H2O2
K5Ce2H2S6O25,mp-710070,0.5116,1.45811864,0.0,icsd-155688,"{19: 5, 58: 2, 1: 2, 16: 6, 8: 25}","[1, 8, 16, 19, 58]",12825166195582,K5Ce2H2S6O25
KPH2SO3,mp-643033,4.5259,0.36969603,0.0,icsd-75217,"{19: 1, 15: 1, 1: 2, 16: 1, 8: 3}","[1, 8, 15, 16, 19]",1283151161191,K1P1H2S1O3
KP(HO2)2,mp-23959,5.4325,-0.76190874,0.0,icsd-183037,"{19: 1, 15: 1, 1: 2, 8: 4}","[1, 8, 15, 19]",1284151191,K1P1H2O4
K2H2RuO5,mp-696941,0.6226,0.34219956,0.0,icsd-36593,"{19: 2, 1: 2, 44: 1, 8: 5}","[1, 8, 19, 44]",1285192441,K2H2Ru1O5
K3ZrH2S(OF)5,mp-696078,6.031,-1.41353083,0.0,icsd-66022,"{19: 3, 40: 1, 1: 2, 16: 1, 8: 5, 9: 5}","[1, 8, 9, 16, 19, 40]",128595161193401,K3Zr1H2S1O5F5
K3Np(HO3)2,mp-1195299,1.2553,0.56464706,0.0,icsd-427265,"{19: 3, 93: 1, 1: 2, 8: 6}","[1, 8, 19, 93]",1286193931,K3Np1H2O6
KScAs2(HO4)2,mp-695800,3.86,-0.47331021,0.0,icsd-59820,"{19: 1, 21: 1, 33: 2, 1: 2, 8: 8}","[1, 8, 19, 21, 33]",1288191211332,K1Sc1As2H2O8
KEuH2S2O9,mp-1203965,0.19629999999999997,-0.14063468,0.0,icsd-421801,"{19: 1, 63: 1, 1: 2, 16: 2, 8: 9}","[1, 8, 16, 19, 63]",1289162191631,K1Eu1H2S2O9
KGdH2S2O9,mp-1198535,2.7706,2.81790987,0.0,icsd-421802,"{19: 1, 64: 1, 1: 2, 16: 2, 8: 9}","[1, 8, 16, 19, 64]",1289162191641,K1Gd1H2S2O9
KTi2H2F11,mp-1203037,4.4376,0.25699453,0.0,icsd-425710,"{19: 1, 22: 2, 1: 2, 9: 11}","[1, 9, 19, 22]",12911191222,K1Ti2H2F11
K2CrH2F8,mp-866709,2.0316,-2.89101094,0.0,icsd-418678,"{19: 2, 24: 1, 1: 2, 9: 8}","[1, 9, 19, 24]",1298192241,K2Cr1H2F8
K2H3CO4F,mp-1191702,4.766500000000001,-1.50231067,0.0,icsd-188659,"{19: 2, 1: 3, 6: 1, 8: 4, 9: 1}","[1, 6, 8, 9, 19]",13618491192,K2H3C1O4F1
K2H3IrNCl5,mp-1203386,2.1428000000000003,0.92054876,0.0,icsd-406831,"{19: 2, 1: 3, 77: 1, 7: 1, 17: 5}","[1, 7, 17, 19, 77]",1371175192771,K2H3Ir1N1Cl5
KPH3NO3,mp-696528,4.8337,-0.46637155,0.0,icsd-23291,"{19: 1, 15: 1, 1: 3, 7: 1, 8: 3}","[1, 7, 8, 15, 19]",137183151191,K1P1H3N1O3
K5NaP3(HO4)3,mp-707453,4.6396999999999995,0.14157188,0.0,icsd-74544,"{19: 5, 11: 1, 15: 3, 1: 3, 8: 12}","[1, 8, 11, 15, 19]",13812111153195,K5Na1P3H3O12
K3GeH3S3O2,mp-24340,2.9928,0.3538773,0.0,icsd-418259,"{19: 3, 32: 1, 1: 3, 16: 3, 8: 2}","[1, 8, 16, 19, 32]",1382163193321,K3Ge1H3S3O2
KH3O2,mp-28263,4.3804,-1.33456389,0.0,icsd-47114,"{19: 1, 1: 3, 8: 2}","[1, 8, 19]",1382191,K1H3O2
KPH3O4F,mp-761185,5.7538,-1.4666047,0.0,icsd-281559,"{19: 1, 15: 1, 1: 3, 8: 4, 9: 1}","[1, 8, 9, 15, 19]",138491151191,K1P1H3O4F1
KH3(SeO3)2,mp-1180593,4.3334,-0.67112621,0.0,icsd-174093,"{19: 1, 1: 3, 34: 2, 8: 6}","[1, 8, 19, 34]",1386191342,K1H3Se2O6
K2PH3SeO8,mp-1211877,4.0697,-1.08553606,0.0,pf-12527,"{19: 2, 15: 1, 1: 3, 34: 1, 8: 8}","[1, 8, 15, 19, 34]",1388151192341,K2P1H3Se1O8
KH3(SO4)2,mp-733655,5.591200000000001,-1.07982267,0.0,icsd-79075,"{19: 1, 1: 3, 16: 2, 8: 8}","[1, 8, 16, 19]",1388162191,K1H3S2O8
KH3(SeO4)2,mp-1200593,3.4141000000000004,1.72139503,0.0,icsd-88882,"{19: 1, 1: 3, 34: 2, 8: 8}","[1, 8, 19, 34]",1388191342,K1H3Se2O8
K6BiH3(Cl2F)4,mp-723540,4.1693,-1.19824615,0.0,icsd-68226,"{19: 6, 83: 1, 1: 3, 17: 8, 9: 4}","[1, 9, 17, 19, 83]",1394178196831,K6Bi1H3Cl8F4
KH3F4,mp-29331,7.3743,-4.67271191,0.0,icsd-202107,"{19: 1, 1: 3, 9: 4}","[1, 9, 19]",1394191,K1H3F4
KGaH4,mp-696983,4.9369,-2.67663797,0.0,icsd-39325,"{19: 1, 31: 1, 1: 4}","[1, 19, 31]",14191311,K1Ga1H4
K2ZnH4,mp-695998,4.141,-1.64458516,0.0,icsd-79584,"{19: 2, 30: 1, 1: 4}","[1, 19, 30]",14192301,K2Zn1H4
K2H4Pd,mp-643257,2.424,-1.47780487,0.0,icsd-71776,"{19: 2, 1: 4, 46: 1}","[1, 19, 46]",14192461,K2H4Pd1
K2H4Pt,mp-974713,2.9939999999999998,-1.45417879,0.0,icsd-201992,"{19: 2, 1: 4, 78: 1}","[1, 19, 78]",14192781,K2H4Pt1
K2BeH4(SO5)2,mp-510545,5.276,-0.51468037,0.0,icsd-153469,"{19: 2, 4: 1, 1: 4, 16: 2, 8: 10}","[1, 4, 8, 16, 19]",1441810162192,K2Be1H4S2O10
K2BeH4(SeO5)2,mp-542813,3.2321999999999997,-1.21925754,0.0,icsd-153468,"{19: 2, 4: 1, 1: 4, 34: 2, 8: 10}","[1, 4, 8, 19, 34]",1441810192342,K2Be1H4Se2O10
K5Zn4Sn5H4S17N,mp-1211906,1.5769,1.23568285,0.0,pf-10086,"{19: 5, 30: 4, 50: 5, 1: 4, 16: 17, 7: 1}","[1, 7, 16, 19, 30, 50]",14711617195304505,K5Zn4Sn5H4S17N1
K4GeH4N2O3,mp-720197,2.4271000000000003,0.01879332,0.0,icsd-79079,"{19: 4, 32: 1, 1: 4, 7: 2, 8: 3}","[1, 7, 8, 19, 32]",147283194321,K4Ge1H4N2O3
KSmH4(N2O7)2,mp-759030,3.3023,-1.07200451,0.0,icsd-409528,"{19: 1, 62: 1, 1: 4, 7: 4, 8: 14}","[1, 7, 8, 19, 62]",1474814191621,K1Sm1H4N4O14
K2CoH4(SeO5)2,mp-644334,0.31389999999999996,0.66566434,0.0,icsd-98686,"{19: 2, 27: 1, 1: 4, 34: 2, 8: 10}","[1, 8, 19, 27, 34]",14810192271342,K2Co1H4Se2O10
K2CdH4(SeO5)2,mp-697945,2.9829,-0.81494568,0.0,icsd-95863,"{19: 2, 48: 1, 1: 4, 34: 2, 8: 10}","[1, 8, 19, 34, 48]",14810192342481,K2Cd1H4Se2O10
K2Zn3P4(HO3)4,mp-707310,4.6749,-0.84879868,0.0,icsd-65827,"{19: 2, 30: 3, 15: 4, 1: 4, 8: 12}","[1, 8, 15, 19, 30]",14812154192303,K2Zn3P4H4O12
KMnGa2P3(H2O7)2,mp-1203519,3.3886,1.06176118,0.0,icsd-261118,"{19: 1, 25: 1, 31: 2, 15: 3, 1: 4, 8: 14}","[1, 8, 15, 19, 25, 31]",14814153191251312,K1Mn1Ga2P3H4O14
KFeP4(H2O7)2,mp-758349,2.6574,-0.06634395,0.0,icsd-250262,"{19: 1, 26: 1, 15: 4, 1: 4, 8: 14}","[1, 8, 15, 19, 26]",14814154191261,K1Fe1P4H4O14
K2ZnH4(I2O7)2,mp-863752,3.1091999999999995,1.16675476,0.0,icsd-260726,"{19: 2, 30: 1, 1: 4, 53: 4, 8: 14}","[1, 8, 19, 30, 53]",14814192301534,K2Zn1H4I4O14
K2Fe3P4(HO4)4,mp-1200218,3.6361,1.37878896,0.0,icsd-262784,"{19: 2, 26: 3, 15: 4, 1: 4, 8: 16}","[1, 8, 15, 19, 26]",14816154192263,K2Fe3P4H4O16
K2BiH4Cl5O2,mp-1197978,3.6572999999999998,-0.65555523,0.0,icsd-260071,"{19: 2, 83: 1, 1: 4, 17: 5, 8: 2}","[1, 8, 17, 19, 83]",1482175192831,K2Bi1H4Cl5O2
K3NaNp4H4(S2O13)2,mp-1199989,0.45730000000000004,3.24890441,0.0,icsd-171745,"{19: 3, 11: 1, 93: 4, 1: 4, 16: 4, 8: 26}","[1, 8, 11, 16, 19, 93]",14826111164193934,K3Na1Np4H4S4O26
K10Th3(P5S18)2,mp-680237,2.1956999999999995,3.58925363,0.0,icsd-280655,"{19: 10, 90: 3, 15: 10, 16: 36}","[15, 16, 19, 90]",151016361910903,K10Th3P10S36
K3P11,mp-1568,1.93,1.8272113,0.0,icsd-36590,"{19: 3, 15: 11}","[15, 19]",1511193,K3P11
KNb2PS10,mp-542972,1.4962,2.66388477,0.0,icsd-417946,"{19: 1, 41: 2, 15: 1, 16: 10}","[15, 16, 19, 41]",1511610191412,K1Nb2P1S10
KPS3,mp-8267,1.7149,1.29029314,0.0,icsd-33278,"{19: 1, 15: 1, 16: 3}","[15, 16, 19]",151163191,K1P1S3
K2PS3,mp-1202353,2.887,0.77525511,0.0,icsd-426905,"{19: 2, 15: 1, 16: 3}","[15, 16, 19]",151163192,K2P1S3
KPPdS4,mp-866637,1.477,1.03246303,0.0,icsd-165315,"{19: 1, 15: 1, 46: 1, 16: 4}","[15, 16, 19, 46]",151164191461,K1P1Pd1S4
KAg2PS4,mp-12532,1.2441,2.66010495,0.0,icsd-420033,"{19: 1, 47: 2, 15: 1, 16: 4}","[15, 16, 19, 47]",151164191472,K1Ag2P1S4
KSnPS4,mp-1193412,2.1224000000000003,2.42848983,0.0,icsd-248911,"{19: 1, 50: 1, 15: 1, 16: 4}","[15, 16, 19, 50]",151164191501,K1Sn1P1S4
KBaPS4,mp-17088,2.3898,1.55599141,0.0,icsd-414639,"{19: 1, 56: 1, 15: 1, 16: 4}","[15, 16, 19, 56]",151164191561,K1Ba1P1S4
KEuPS4,mp-628735,0.0,4.88744418,0.0,icsd-279622,"{19: 1, 63: 1, 15: 1, 16: 4}","[15, 16, 19, 63]",151164191631,K1Eu1P1S4
KPPbS4,mp-638150,2.3165999999999998,2.40372437,0.0,icsd-171379,"{19: 1, 15: 1, 82: 1, 16: 4}","[15, 16, 19, 82]",151164191821,K1P1Pb1S4
K2PAuS4,mp-9509,1.5691000000000002,1.48538495,0.0,icsd-85679,"{19: 2, 15: 1, 79: 1, 16: 4}","[15, 16, 19, 79]",151164192791,K2P1Au1S4
K3PS4,mp-17989,2.7739000000000003,0.99626373,0.0,icsd-24599,"{19: 3, 15: 1, 16: 4}","[15, 16, 19]",151164193,K3P1S4
KTiPS5,mp-560977,1.2217,1.48978553,0.0,icsd-82262,"{19: 1, 22: 1, 15: 1, 16: 5}","[15, 16, 19, 22]",151165191221,K1Ti1P1S5
KTaPS6,mp-683955,1.5714,1.57809093,0.0,icsd-59915,"{19: 1, 73: 1, 15: 1, 16: 6}","[15, 16, 19, 73]",151166191731,K1Ta1P1S6
KP,mp-7441,1.0349999999999997,2.39110254,0.0,icsd-14010,"{19: 1, 15: 1}","[15, 19]",151191,K1P1
KTiPSe5,mp-571544,0.601,1.18760582,0.0,icsd-81297,"{19: 1, 22: 1, 15: 1, 34: 5}","[15, 19, 22, 34]",151191221345,K1Ti1P1Se5
KMnP,mp-20422,0.0,2.83653462,0.0,icsd-89592,"{19: 1, 25: 1, 15: 1}","[15, 19, 25]",151191251,K1Mn1P1
KCuPSe3,mp-568611,1.0053,3.30440917,0.0,icsd-78949,"{19: 1, 29: 1, 15: 1, 34: 3}","[15, 19, 29, 34]",151191291343,K1Cu1P1Se3
KZnP,mp-7437,0.8395999999999999,1.98868598,0.0,icsd-12160,"{19: 1, 30: 1, 15: 1}","[15, 19, 30]",151191301,K1Zn1P1
KPSe3,mp-569702,1.4182,1.15369372,0.0,icsd-173418,"{19: 1, 15: 1, 34: 3}","[15, 19, 34]",151191343,K1P1Se3
KAgPSe3,mp-1196972,1.3696000000000002,1.46630311,0.0,icsd-165360,"{19: 1, 47: 1, 15: 1, 34: 3}","[15, 19, 34, 47]",151191343471,K1Ag1P1Se3
KPAuSe3,mp-862850,0.9936999999999998,1.6061454,0.0,icsd-165322,"{19: 1, 15: 1, 79: 1, 34: 3}","[15, 19, 34, 79]",151191343791,K1P1Au1Se3
KBaPSe4,mp-18156,1.2588000000000001,1.33540296,0.0,icsd-414637,"{19: 1, 56: 1, 15: 1, 34: 4}","[15, 19, 34, 56]",151191344561,K1Ba1P1Se4
KEuPSe4,mp-10382,0.0895999999999999,2.72170028,0.0,icsd-280200,"{19: 1, 63: 1, 15: 1, 34: 4}","[15, 19, 34, 63]",151191344631,K1Eu1P1Se4