formula,material_id,band_gap,efermi,energy_above_hull,database_IDs,comp_atoms,sorted_keys_comp_atoms,comp_number,new_formula
K2GeAs2,mp-8930,0.8442000000000001,1.70110518,0.0,icsd-71222,"{19: 2, 32: 1, 33: 2}","[19, 32, 33]",192321332,K2Ge1As2
K2GeSe3,mp-9692,1.7264,0.09870696,0.0,icsd-300233,"{19: 2, 32: 1, 34: 3}","[19, 32, 34]",192321343,K2Ge1Se3
K2GeSe4,mp-29022,1.7867,0.34926671,0.0,icsd-78828,"{19: 2, 32: 1, 34: 4}","[19, 32, 34]",192321344,K2Ge1Se4
K2Ag2GeSe4,mp-1188845,1.0777999999999999,1.09997989,0.0,icsd-420014,"{19: 2, 47: 2, 32: 1, 34: 4}","[19, 32, 34, 47]",192321344472,K2Ag2Ge1Se4
K2GeTe4,mp-28126,0.8177000000000001,1.79611074,0.0,icsd-38341,"{19: 2, 32: 1, 52: 4}","[19, 32, 52]",192321524,K2Ge1Te4
K2Ge2Se5,mp-29388,1.8029,-0.19687947,0.0,icsd-300262,"{19: 2, 32: 2, 34: 5}","[19, 32, 34]",192322345,K2Ge2Se5
K2Hg3(GeSe4)2,mp-17307,1.0352000000000001,0.69343842,0.0,icsd-95237,"{19: 2, 80: 3, 32: 2, 34: 8}","[19, 32, 34, 80]",192322348803,K2Hg3Ge2Se8
K2AgAs,mp-7642,1.0719,1.18862841,0.0,icsd-1154,"{19: 2, 47: 1, 33: 1}","[19, 33, 47]",192331471,K2Ag1As1
K2Te2As,mp-29380,0.9603999999999999,1.65983822,0.0,icsd-300184,"{19: 2, 52: 2, 33: 1}","[19, 33, 52]",192331522,K2Te2As1
K2Sm2As2Se9,mp-571473,1.0577,1.94583168,0.0,icsd-260254,"{19: 2, 62: 2, 33: 2, 34: 9}","[19, 33, 34, 62]",192332349622,K2Sm2As2Se9
K2As2Pd,mp-8147,0.6457999999999999,2.01619287,0.0,icsd-32009,"{19: 2, 33: 2, 46: 1}","[19, 33, 46]",192332461,K2As2Pd1
K2As2Pt,mp-1079513,0.3521000000000001,2.53742324,0.0,icsd-610762,"{19: 2, 33: 2, 78: 1}","[19, 33, 78]",192332781,K2As2Pt1
K2Ag(AsSe2)3,mp-541915,1.2346,1.35061004,0.0,icsd-88003,"{19: 2, 47: 1, 33: 3, 34: 6}","[19, 33, 34, 47]",192333346471,K2Ag1As3Se6
K2In2As3,mp-21741,0.7807999999999997,2.68133748,0.0,icsd-300198,"{19: 2, 49: 2, 33: 3}","[19, 33, 49]",192333492,K2In2As3
K2Se,mp-8426,2.0925000000000002,-0.51456796,0.0,icsd-60440,"{19: 2, 34: 1}","[19, 34]",192341,K2Se1
K2SeBr6,mp-23036,1.6978,-0.42338219,0.0,icsd-36228,"{19: 2, 34: 1, 35: 6}","[19, 34, 35]",192341356,K2Se1Br6
K2Bi8Se13,mp-28800,0.8361000000000001,2.68047493,0.0,icsd-72976,"{19: 2, 83: 8, 34: 13}","[19, 34, 83]",1923413838,K2Bi8Se13
K2PdSe2,mp-1069706,0.8458000000000001,1.42324451,0.0,icsd-641298,"{19: 2, 46: 1, 34: 2}","[19, 34, 46]",192342461,K2Pd1Se2
K2PtSe2,mp-8621,0.9345000000000001,2.01132511,0.0,icsd-40430,"{19: 2, 78: 1, 34: 2}","[19, 34, 78]",192342781,K2Pt1Se2
K2Se3,mp-7670,0.644,1.0493969,0.0,icsd-1264,"{19: 2, 34: 3}","[19, 34]",192343,K2Se3
K2RbBiSe3,mp-621964,2.1256,0.37639297,0.0,icsd-85412,"{19: 2, 37: 1, 83: 1, 34: 3}","[19, 34, 37, 83]",192343371831,K2Rb1Bi1Se3
K2Ag4Se3,mp-573891,0.0,1.78596169,0.0,icsd-54102,"{19: 2, 47: 4, 34: 3}","[19, 34, 47]",192343474,K2Ag4Se3
K2SnSe3,mp-9693,1.646,0.56063359,0.0,icsd-300234,"{19: 2, 50: 1, 34: 3}","[19, 34, 50]",192343501,K2Sn1Se3
K2TeSe3,mp-28419,1.7896,0.17636274,0.0,icsd-63012,"{19: 2, 52: 1, 34: 3}","[19, 34, 52]",192343521,K2Te1Se3
K2Pd3Se4,mp-14339,0.764,1.8284183,0.0,icsd-33894,"{19: 2, 46: 3, 34: 4}","[19, 34, 46]",192344463,K2Pd3Se4
K2Ag2SnSe4,mp-570887,0.8472000000000002,1.59873107,0.0,icsd-90119,"{19: 2, 47: 2, 50: 1, 34: 4}","[19, 34, 47, 50]",192344472501,K2Ag2Sn1Se4
K2CdSnSe4,mp-1079645,1.6721,1.3471954,0.0,icsd-185468,"{19: 2, 48: 1, 50: 1, 34: 4}","[19, 34, 48, 50]",192344481501,K2Cd1Sn1Se4
K2Cd3Se4,mp-1198419,1.4027999999999998,0.37056068,0.0,icsd-710063,"{19: 2, 48: 3, 34: 4}","[19, 34, 48]",192344483,K2Cd3Se4
K2SnHgSe4,mp-568968,1.4785000000000001,1.36335561,0.0,icsd-413308,"{19: 2, 50: 1, 80: 1, 34: 4}","[19, 34, 50, 80]",192344501801,K2Sn1Hg1Se4
K2WSe4,mp-18138,1.2241,0.57422901,0.0,icsd-59242,"{19: 2, 74: 1, 34: 4}","[19, 34, 74]",192344741,K2W1Se4
K2Hg3Se4,mp-1212008,1.1091,0.5519439,0.0,pf-8939,"{19: 2, 80: 3, 34: 4}","[19, 34, 80]",192344803,K2Hg3Se4
K2Se5,mp-18609,0.9322999999999999,1.09676943,0.0,icsd-72380,"{19: 2, 34: 5}","[19, 34]",192345,K2Se5
K2Sn2Se5,mp-8966,0.8429,1.78939918,0.0,icsd-72379,"{19: 2, 50: 2, 34: 5}","[19, 34, 50]",192345502,K2Sn2Se5
K2(TcSe2)3,mp-541354,0.8982999999999999,2.93202353,0.0,icsd-72538,"{19: 2, 43: 3, 34: 6}","[19, 34, 43]",192346433,K2Tc3Se6
K2In3AgSe6,mp-21705,1.4829,1.48920867,0.0,icsd-54859,"{19: 2, 49: 3, 47: 1, 34: 6}","[19, 34, 47, 49]",192346471493,K2In3Ag1Se6
K2(ReSe2)3,mp-541060,1.1360999999999999,3.97264083,0.0,icsd-60101,"{19: 2, 75: 3, 34: 6}","[19, 34, 75]",192346753,K2Re3Se6
K2Gd2Sb2Se9,mp-1199482,0.9220000000000002,2.63032322,0.0,icsd-88708,"{19: 2, 64: 2, 51: 2, 34: 9}","[19, 34, 51, 64]",192349512642,K2Gd2Sb2Se9
K23(Sn3Au4)3,mp-1195947,0.0,2.08271338,0.0,icsd-248047,"{19: 23, 50: 9, 79: 12}","[19, 50, 79]",19235097912,K23Sn9Au12
K2PdBr4,mp-27138,1.2048999999999999,-0.7971673,0.0,icsd-1982,"{19: 2, 46: 1, 35: 4}","[19, 35, 46]",192354461,K2Pd1Br4
K2LaBr5,mp-1212029,3.3763,-0.16045037,0.0,pf-39819,"{19: 2, 57: 1, 35: 5}","[19, 35, 57]",192355571,K2La1Br5
K2CeBr5,mp-1212039,0.1634000000000002,2.0845646,0.0,pf-17459,"{19: 2, 58: 1, 35: 5}","[19, 35, 58]",192355581,K2Ce1Br5
K2PrBr5,mp-28276,4.007,-0.62403611,0.0,icsd-48191,"{19: 2, 59: 1, 35: 5}","[19, 35, 59]",192355591,K2Pr1Br5
K2NdBr5,mp-1211863,3.9512,-0.66748893,0.0,pf-28027,"{19: 2, 60: 1, 35: 5}","[19, 35, 60]",192355601,K2Nd1Br5
K2SmBr5,mp-1211730,4.0333,-0.63429057,0.0,pf-38472,"{19: 2, 62: 1, 35: 5}","[19, 35, 62]",192355621,K2Sm1Br5
K2UBr5,mp-28776,0.11680000000000001,3.00644447,0.0,icsd-72616,"{19: 2, 92: 1, 35: 5}","[19, 35, 92]",192355921,K2U1Br5
K2TcBr6,mp-1206472,1.0368,-0.15913401,0.0,pf-14945,"{19: 2, 43: 1, 35: 6}","[19, 35, 43]",192356431,K2Tc1Br6
K2PdBr6,mp-1205761,0.5077,-0.52223811,0.0,pf-32951,"{19: 2, 46: 1, 35: 6}","[19, 35, 46]",192356461,K2Pd1Br6
K2SnBr6,mp-574040,1.6124,-0.525159,0.0,icsd-35557,"{19: 2, 50: 1, 35: 6}","[19, 35, 50]",192356501,K2Sn1Br6
K2TeBr6,mp-22963,2.3360000000000003,-0.5660199,0.0,icsd-22078,"{19: 2, 52: 1, 35: 6}","[19, 35, 52]",192356521,K2Te1Br6
K2ReBr6,mp-23021,0.9700000000000001,0.35795929,0.0,icsd-26623,"{19: 2, 75: 1, 35: 6}","[19, 35, 75]",192356751,K2Re1Br6
K2OsBr6,mp-27835,0.0,0.68620461,0.0,icsd-26770,"{19: 2, 76: 1, 35: 6}","[19, 35, 76]",192356761,K2Os1Br6
K2PtBr6,mp-27691,1.1688,-0.33168394,0.0,icsd-23771,"{19: 2, 78: 1, 35: 6}","[19, 35, 78]",192356781,K2Pt1Br6
K2(NbBr3)3,mp-31012,1.0786,1.15171829,0.0,icsd-49687,"{19: 2, 41: 3, 35: 9}","[19, 35, 41]",192359413,K2Nb3Br9
K2SrCdSb2,mp-863758,0.3151999999999999,2.68519419,0.0,icsd-422273,"{19: 2, 38: 1, 48: 1, 51: 2}","[19, 38, 48, 51]",192381481512,K2Sr1Cd1Sb2
K2ZrTe3,mp-29602,0.3738999999999999,2.25044236,0.0,icsd-410734,"{19: 2, 40: 1, 52: 3}","[19, 40, 52]",192401523,K2Zr1Te3
K2TcI6,mp-573568,0.17469999999999986,1.45287012,0.0,icsd-65510,"{19: 2, 43: 1, 53: 6}","[19, 43, 53]",192431536,K2Tc1I6
K2Te2Pd,mp-1206350,0.21030000000000015,2.56793309,0.0,pf-39436,"{19: 2, 52: 2, 46: 1}","[19, 46, 52]",192461522,K2Te2Pd1
K2CdSn,mp-1079679,0.059499999999999886,1.60666747,0.0,icsd-620066,"{19: 2, 48: 1, 50: 1}","[19, 48, 50]",192481501,K2Cd1Sn1
K2BaCdSb2,mp-863761,0.15000000000000036,2.50513889,0.0,icsd-422272,"{19: 2, 56: 1, 48: 1, 51: 2}","[19, 48, 51, 56]",192481512561,K2Ba1Cd1Sb2
K2CdPb,mp-504498,0.0,1.56065672,0.0,icsd-10041,"{19: 2, 48: 1, 82: 1}","[19, 48, 82]",192481821,K2Cd1Pb1
K2Cd2Te3,mp-571637,1.3224,1.46067068,0.0,icsd-420089,"{19: 2, 48: 2, 52: 3}","[19, 48, 52]",192482523,K2Cd2Te3
K2In2Sb3,mp-579637,0.8028,3.30064193,0.0,icsd-300197,"{19: 2, 49: 2, 51: 3}","[19, 49, 51]",192492513,K2In2Sb3
K2SnTe3,mp-29835,0.9613,2.55681665,0.0,icsd-409483,"{19: 2, 50: 1, 52: 3}","[19, 50, 52]",192501523,K2Sn1Te3
K2SnBi,mp-31486,0.0,3.13266448,0.0,icsd-107616,"{19: 2, 50: 1, 83: 1}","[19, 50, 83]",192501831,K2Sn1Bi1
CsK2Sb,mp-581024,0.8633999999999997,1.8202426,0.0,icsd-53237,"{55: 1, 19: 2, 51: 1}","[19, 51, 55]",192511551,Cs1K2Sb1
K2SbAu,mp-863757,1.0023000000000002,1.86014473,0.0,icsd-380340,"{19: 2, 51: 1, 79: 1}","[19, 51, 79]",192511791,K2Sb1Au1
K2Te,mp-1747,2.141,-0.14381336,0.0,icsd-182742,"{19: 2, 52: 1}","[19, 52]",192521,K2Te1
K2TeI6,mp-27688,1.7449,0.95377421,0.0,icsd-23649,"{19: 2, 52: 1, 53: 6}","[19, 52, 53]",192521536,K2Te1I6
K2Te2Pt,mp-8623,0.7917000000000001,2.68098742,0.0,icsd-40432,"{19: 2, 52: 2, 78: 1}","[19, 52, 78]",192522781,K2Te2Pt1
K2Te3,mp-7289,0.5752000000000002,2.71375407,0.0,icsd-2453,"{19: 2, 52: 3}","[19, 52]",192523,K2Te3
K2UTe3,mp-10434,0.0,3.67646842,0.0,icsd-89546,"{19: 2, 92: 1, 52: 3}","[19, 52, 92]",192523921,K2U1Te3
K2LaI5,mp-1212017,2.7532000000000005,1.4539648,0.0,pf-28183,"{19: 2, 57: 1, 53: 5}","[19, 53, 57]",192535571,K2La1I5
K2PrI5,mp-28277,3.031,1.05819701,0.0,icsd-48192,"{19: 2, 59: 1, 53: 5}","[19, 53, 59]",192535591,K2Pr1I5
K2NdI5,mp-1211886,3.0409999999999995,1.06249299,0.0,pf-30165,"{19: 2, 60: 1, 53: 5}","[19, 53, 60]",192535601,K2Nd1I5
K2PtI6,mp-28247,0.8659999999999999,1.60762832,0.0,icsd-37190,"{19: 2, 78: 1, 53: 6}","[19, 53, 78]",192536781,K2Pt1I6
K2Pt,mp-1062676,1.3146,-0.10184974,0.0,icsd-63608,"{19: 2, 78: 1}","[19, 78]",192781,K2Pt1
K2BiAu,mp-1084770,0.8705,1.71927811,0.0,icsd-380341,"{19: 2, 83: 1, 79: 1}","[19, 79, 83]",192791831,K2Bi1Au1
K2Au3,mp-8700,0.0,2.24745018,0.0,icsd-65113,"{19: 2, 79: 3}","[19, 79]",192793,K2Au3
K2Hg7,mp-31473,0.0,1.50882401,0.0,icsd-107482,"{19: 2, 80: 7}","[19, 80]",192807,K2Hg7
K3FeSe3,mp-541997,0.0,0.94144664,0.0,icsd-89586,"{19: 3, 26: 1, 34: 3}","[19, 26, 34]",193261343,K3Fe1Se3
K3(FeSe2)2,mp-541998,0.0,1.4369604,0.0,icsd-89587,"{19: 3, 26: 2, 34: 4}","[19, 26, 34]",193262344,K3Fe2Se4
K3Cu11Te16,mp-569136,0.06309999999999949,4.91703759,0.0,icsd-88338,"{19: 3, 29: 11, 52: 16}","[19, 29, 52]",19329115216,K3Cu11Te16
K3Nb2CuSe12,mp-6168,1.1322999999999999,1.6814287,0.0,icsd-73325,"{19: 3, 41: 2, 29: 1, 34: 12}","[19, 29, 34, 41]",1932913412412,K3Nb2Cu1Se12
K3Cu3As2,mp-14205,1.2741,2.20192569,0.0,icsd-32015,"{19: 3, 29: 3, 33: 2}","[19, 29, 33]",193293332,K3Cu3As2
K3Nb2Cu3Se8,mp-1202743,1.6021,1.19021243,0.0,icsd-657393,"{19: 3, 41: 2, 29: 3, 34: 8}","[19, 29, 34, 41]",193293348412,K3Nb2Cu3Se8
K3Ta2Cu3Se8,mp-1200105,1.9869999999999999,1.2214819,0.0,icsd-657394,"{19: 3, 73: 2, 29: 3, 34: 8}","[19, 29, 34, 73]",193293348732,K3Ta2Cu3Se8
K3Ga13,mp-680682,0.0,2.07911133,0.0,icsd-103709,"{19: 3, 31: 13}","[19, 31]",1933113,K3Ga13
K3GaSe3,mp-541687,2.4441,0.16267835,0.0,icsd-300170,"{19: 3, 31: 1, 34: 3}","[19, 31, 34]",193311343,K3Ga1Se3
Cs6K3GaSb4,mp-541811,0.6364999999999998,2.22032273,0.0,icsd-300150,"{55: 6, 19: 3, 31: 1, 51: 4}","[19, 31, 51, 55]",193311514556,Cs6K3Ga1Sb4
K3GaTe3,mp-541688,1.5112,1.20383034,0.0,icsd-300171,"{19: 3, 31: 1, 52: 3}","[19, 31, 52]",193311523,K3Ga1Te3
K3Ga3As4,mp-567524,0.8722000000000001,1.82064918,0.0,icsd-40206,"{19: 3, 31: 3, 33: 4}","[19, 31, 33]",193313334,K3Ga3As4
K3GeSe3,mp-14435,1.8278999999999999,0.53344908,0.0,icsd-47112,"{19: 3, 32: 1, 34: 3}","[19, 32, 34]",193321343,K3Ge1Se3
K3GeTe3,mp-27331,1.0607000000000002,1.34584668,0.0,icsd-10108,"{19: 3, 32: 1, 52: 3}","[19, 32, 52]",193321523,K3Ge1Te3
K3Ge17,mp-1196998,0.058699999999999974,2.74284482,0.0,icsd-192630,"{19: 3, 32: 17}","[19, 32]",1933217,K3Ge17
K3Ge4Au,mp-17112,0.8175999999999999,1.91681784,0.0,icsd-413728,"{19: 3, 32: 4, 79: 1}","[19, 32, 79]",193324791,K3Ge4Au1
K3As,mp-14018,0.11180000000000001,0.53022712,0.0,icsd-26887,"{19: 3, 33: 1}","[19, 33]",193331,K3As1
K3As11,mp-541000,1.4670999999999998,1.26846806,0.0,icsd-36591,"{19: 3, 33: 11}","[19, 33]",1933311,K3As11
K3Nb2AsSe11,mp-542545,1.1647999999999998,1.43200344,0.0,icsd-413597,"{19: 3, 41: 2, 33: 1, 34: 11}","[19, 33, 34, 41]",1933313411412,K3Nb2As1Se11
K3Ta2AsSe11,mp-683905,1.1878000000000002,1.51383763,0.0,icsd-413600,"{19: 3, 73: 2, 33: 1, 34: 11}","[19, 33, 34, 73]",1933313411732,K3Ta2As1Se11
K3AsSe3,mp-18594,2.1092,0.20742479,0.0,icsd-50492,"{19: 3, 33: 1, 34: 3}","[19, 33, 34]",193331343,K3As1Se3
K3AsSe4,mp-1197539,1.1130999999999998,1.44266619,0.0,icsd-424533,"{19: 3, 33: 1, 34: 4}","[19, 33, 34]",193331344,K3As1Se4
K3Ag3As2,mp-14206,1.2533,1.18140604,0.0,icsd-32016,"{19: 3, 47: 3, 33: 2}","[19, 33, 47]",193332473,K3Ag3As2
K3In2As3,mp-583615,0.5968999999999998,2.16595061,0.0,icsd-300199,"{19: 3, 49: 2, 33: 3}","[19, 33, 49]",193333492,K3In2As3
K3Bi(AsSe2)6,mp-865961,1.3986999999999998,1.61474535,0.0,icsd-180763,"{19: 3, 83: 1, 33: 6, 34: 12}","[19, 33, 34, 83]",1933363412831,K3Bi1As6Se12
K3As7,mp-680329,1.3032000000000001,1.2775554,0.0,icsd-412596,"{19: 3, 33: 7}","[19, 33]",193337,K3As7
K3Nb2Se11,mp-28428,0.8635999999999999,1.36838852,0.0,icsd-63253,"{19: 3, 41: 2, 34: 11}","[19, 34, 41]",1933411412,K3Nb2Se11
K3AuSe13,mp-28606,0.7186000000000001,1.21315912,0.0,icsd-67373,"{19: 3, 79: 1, 34: 13}","[19, 34, 79]",1933413791,K3Au1Se13
K3AuSe2,mp-15571,2.0524,-0.04381844,0.0,icsd-402000,"{19: 3, 79: 1, 34: 2}","[19, 34, 79]",193342791,K3Au1Se2
K3SnSe3,mp-541875,1.6275999999999997,0.79953219,0.0,icsd-410863,"{19: 3, 50: 1, 34: 3}","[19, 34, 50]",193343501,K3Sn1Se3
K3SbSe3,mp-17538,2.2931000000000004,0.52043638,0.0,icsd-89607,"{19: 3, 51: 1, 34: 3}","[19, 34, 51]",193343511,K3Sb1Se3
K3BiSe3,mp-28980,2.0592,0.4699701,0.0,icsd-78841,"{19: 3, 83: 1, 34: 3}","[19, 34, 83]",193343831,K3Bi1Se3
K3NbSe4,mp-17283,1.8249,0.19409243,0.0,icsd-73327,"{19: 3, 41: 1, 34: 4}","[19, 34, 41]",193344411,K3Nb1Se4
K3SbSe4,mp-8704,1.4318,0.64042548,0.0,icsd-65142,"{19: 3, 51: 1, 34: 4}","[19, 34, 51]",193344511,K3Sb1Se4
K3Ta2Ag3Se8,mp-582161,2.076,0.5195138,0.0,icsd-414270,"{19: 3, 73: 2, 47: 3, 34: 8}","[19, 34, 47, 73]",193348473732,K3Ta2Ag3Se8
K3Au3Br8,mp-1211803,0.8133999999999999,0.49571988,0.0,pf-34433,"{19: 3, 79: 3, 35: 8}","[19, 35, 79]",193358793,K3Au3Br8
K3Cd16,mp-1202778,0.0,1.68058776,0.0,icsd-421370,"{19: 3, 48: 16}","[19, 48]",1934816,K3Cd16
K3InAu5,mp-867331,0.0,2.68890146,0.0,icsd-249922,"{19: 3, 49: 1, 79: 5}","[19, 49, 79]",193491795,K3In1Au5
K3SnTe3,mp-540619,1.2297000000000002,1.50317492,0.0,icsd-10109,"{19: 3, 50: 1, 52: 3}","[19, 50, 52]",193501523,K3Sn1Te3
K3Sn4Au,mp-18500,0.3972000000000002,2.80118587,0.0,icsd-107444,"{19: 3, 50: 4, 79: 1}","[19, 50, 79]",193504791,K3Sn4Au1
K3Sb,mp-14017,0.38939999999999997,0.77405333,0.0,icsd-26886,"{19: 3, 51: 1}","[19, 51]",193511,K3Sb1
K3SbTe3,mp-5626,1.711,1.3253203,0.0,icsd-300182,"{19: 3, 51: 1, 52: 3}","[19, 51, 52]",193511523,K3Sb1Te3
K3Sb2Au3,mp-9273,1.1046,2.35417848,0.0,icsd-78977,"{19: 3, 51: 2, 79: 3}","[19, 51, 79]",193512793,K3Sb2Au3
K3BiTe3,mp-29379,1.4987,1.29726586,0.0,icsd-300183,"{19: 3, 83: 1, 52: 3}","[19, 52, 83]",193523831,K3Bi1Te3
K3PbAu5,mp-31471,0.0,2.98877976,0.0,icsd-107450,"{19: 3, 82: 1, 79: 5}","[19, 79, 82]",193795821,K3Pb1Au5
K3Bi,mp-31286,0.02499999999999991,0.54072773,0.0,icsd-409223,"{19: 3, 83: 1}","[19, 83]",193831,K3Bi1
K4(TiTe3)3,mp-30280,0.0,3.61134484,0.0,icsd-391207,"{19: 4, 22: 3, 52: 9}","[19, 22, 52]",194223529,K4Ti3Te9
K4MnBr6,mp-29637,2.3071,-0.01418667,0.0,icsd-42442,"{19: 4, 25: 1, 35: 6}","[19, 25, 35]",194251356,K4Mn1Br6
K4Zr6FeBr18,mp-1211812,1.3841,0.69672904,0.0,pf-21369,"{19: 4, 40: 6, 26: 1, 35: 18}","[19, 26, 35, 40]",1942613518406,K4Zr6Fe1Br18
K4ZnAs2,mp-571461,0.725,0.36422784,0.0,icsd-409919,"{19: 4, 30: 1, 33: 2}","[19, 30, 33]",194301332,K4Zn1As2
K4ZnBi2,mp-1103566,0.32909999999999995,0.85714473,0.0,icsd-192439,"{19: 4, 30: 1, 83: 2}","[19, 30, 83]",194301832,K4Zn1Bi2
K4GaAu8,mp-31484,0.0,2.3724875,0.0,icsd-107555,"{19: 4, 31: 1, 79: 8}","[19, 31, 79]",194311798,K4Ga1Au8
K4GeSe4,mp-568847,2.0003,-0.13868054,0.0,icsd-418258,"{19: 4, 32: 1, 34: 4}","[19, 32, 34]",194321344,K4Ge1Se4
K4In3Ge20,mp-640312,0.0,4.58693962,0.0,icsd-400448,"{19: 4, 49: 3, 32: 20}","[19, 32, 49]",1943220493,K4In3Ge20
K4Ge2Au7,mp-9201,0.0,2.40243467,0.0,icsd-79111,"{19: 4, 32: 2, 79: 7}","[19, 32, 79]",194322797,K4Ge2Au7
K4As2Se5,mp-1204061,1.1592,1.42341769,0.0,icsd-424534,"{19: 4, 33: 2, 34: 5}","[19, 33, 34]",194332345,K4As2Se5
K4CdAs2,mp-29585,0.6091000000000001,0.26149313,0.0,icsd-300190,"{19: 4, 48: 1, 33: 2}","[19, 33, 48]",194332481,K4Cd1As2
K4HgAs2,mp-29484,0.6976000000000001,0.41713996,0.0,icsd-402573,"{19: 4, 80: 1, 33: 2}","[19, 33, 80]",194332801,K4Hg1As2
K4Sr2SnAs4,mp-570311,0.5377000000000003,1.79805657,0.0,icsd-411104,"{19: 4, 38: 2, 50: 1, 33: 4}","[19, 33, 38, 50]",194334382501,K4Sr2Sn1As4
K4Sn(TeSe)2,mp-569427,1.5606,0.73676991,0.0,icsd-419935,"{19: 4, 50: 1, 52: 2, 34: 2}","[19, 34, 50, 52]",194342501522,K4Sn1Te2Se2
K4SnSe4,mp-18132,1.7396,0.16091208,0.0,icsd-72385,"{19: 4, 50: 1, 34: 4}","[19, 34, 50]",194344501,K4Sn1Se4
K4Sn3Se8,mp-4971,1.4545000000000001,1.19802978,0.0,icsd-62372,"{19: 4, 50: 3, 34: 8}","[19, 34, 50]",194348503,K4Sn3Se8
K4Zr3Te17,mp-1212265,0.8564000000000003,3.8085412,0.0,pf-6255,"{19: 4, 40: 3, 52: 17}","[19, 40, 52]",1944035217,K4Zr3Te17
K4Ag18Te11,mp-1203532,0.0,3.54049105,0.0,icsd-427784,"{19: 4, 47: 18, 52: 11}","[19, 47, 52]",19447185211,K4Ag18Te11
K4Sn23,mp-13909,0.0,4.70539914,0.0,icsd-25301,"{19: 4, 50: 23}","[19, 50]",1945023,K4Sn23
K4Sn9,mp-570900,1.1220999999999997,3.11933126,0.0,icsd-240048,"{19: 4, 50: 9}","[19, 50]",194509,K4Sn9
K4Hf3Te17,mp-581963,0.6830000000000003,3.81573801,0.0,icsd-69064,"{19: 4, 72: 3, 52: 17}","[19, 52, 72]",1945217723,K4Hf3Te17
K4La6OsI14,mp-568357,0.0,3.94230334,0.0,icsd-87997,"{19: 4, 57: 6, 76: 1, 53: 14}","[19, 53, 57, 76]",1945314576761,K4La6Os1I14
K49Tl108,mp-640333,0.049100000000000144,3.68641389,0.0,icsd-370032,"{19: 49, 81: 108}","[19, 81]",194981108,K49Tl108
K5CuAs2,mp-14623,0.25249999999999995,1.22254995,0.0,icsd-40699,"{19: 5, 29: 1, 33: 2}","[19, 29, 33]",195291332,K5Cu1As2
K5GaSe4,mp-29377,2.4448999999999996,0.05206948,0.0,icsd-300177,"{19: 5, 31: 1, 34: 4}","[19, 31, 34]",195311344,K5Ga1Se4
K5As2Au,mp-8683,0.3393999999999999,1.12144185,0.0,icsd-40698,"{19: 5, 33: 2, 79: 1}","[19, 33, 79]",195332791,K5As2Au1
K5Ag2(AsSe3)3,mp-570836,0.9497,0.83580903,0.0,icsd-82637,"{19: 5, 47: 2, 33: 3, 34: 9}","[19, 33, 34, 47]",195333349472,K5Ag2As3Se9
K5SnAs3,mp-16989,0.9611000000000001,1.49335579,0.0,icsd-409486,"{19: 5, 50: 1, 33: 3}","[19, 33, 50]",195333501,K5Sn1As3
K5(AsPb)3,mp-646920,0.8377999999999999,1.95141717,0.0,icsd-55419,"{19: 5, 33: 3, 82: 3}","[19, 33, 82]",195333823,K5As3Pb3
K5Ta(TlAs2)2,mp-1211936,1.5206,1.71661662,0.0,pf-12654,"{19: 5, 73: 1, 81: 2, 33: 4}","[19, 33, 73, 81]",195334731812,K5Ta1Tl2As4
K5InPb8,mp-571021,0.0,3.44842607,0.0,icsd-152384,"{19: 5, 49: 1, 82: 8}","[19, 49, 82]",195491828,K5In1Pb8
K5Sb4,mp-30021,0.0,2.27573795,0.0,icsd-56530,"{19: 5, 51: 4}","[19, 51]",195514,K5Sb4
K5Te3,mp-644,0.17159999999999997,1.1192707,0.0,icsd-66024,"{19: 5, 52: 3}","[19, 52]",195523,K5Te3
K5Hg7,mp-30718,0.0,1.30407337,0.0,icsd-104304,"{19: 5, 80: 7}","[19, 80]",195807,K5Hg7
K5Pb24,mp-21613,0.0,5.43954068,0.0,icsd-410090,"{19: 5, 82: 24}","[19, 82]",1958224,K5Pb24
K6MnSe4,mp-18481,1.232,0.81898883,0.0,icsd-65450,"{19: 6, 25: 1, 34: 4}","[19, 25, 34]",196251344,K6Mn1Se4
K6MnTe4,mp-18246,1.4227000000000003,1.18358866,0.0,icsd-65452,"{19: 6, 25: 1, 52: 4}","[19, 25, 52]",196251524,K6Mn1Te4
K6ZnBi5,mp-1190467,0.0,1.65061595,0.0,icsd-238106,"{19: 6, 30: 1, 83: 5}","[19, 30, 83]",196301835,K6Zn1Bi5
K6NbTlAs4,mp-567820,1.1811,1.51119275,0.0,icsd-281025,"{19: 6, 41: 1, 81: 1, 33: 4}","[19, 33, 41, 81]",196334411811,K6Nb1Tl1As4
K6Sn3As5,mp-28728,0.6389999999999998,2.35078733,0.0,icsd-71009,"{19: 6, 50: 3, 33: 5}","[19, 33, 50]",196335503,K6Sn3As5
K6PdSe20,mp-570241,0.9558000000000001,1.01016937,0.0,icsd-44931,"{19: 6, 46: 1, 34: 20}","[19, 34, 46]",1963420461,K6Pd1Se20
K6HgSe4,mp-1191206,1.3845999999999998,0.14428299,0.0,icsd-639060,"{19: 6, 80: 1, 34: 4}","[19, 34, 80]",196344801,K6Hg1Se4
K6Sn2Se7,mp-29386,1.6683999999999999,0.3510537,0.0,icsd-300238,"{19: 6, 50: 2, 34: 7}","[19, 34, 50]",196347502,K6Sn2Se7
K6CdTe4,mp-17698,1.6614,0.68702733,0.0,icsd-420087,"{19: 6, 48: 1, 52: 4}","[19, 48, 52]",196481524,K6Cd1Te4
K6Tl2Sb3,mp-30149,0.2530999999999999,2.19831965,0.0,icsd-93048,"{19: 6, 81: 2, 51: 3}","[19, 51, 81]",196513812,K6Tl2Sb3
K7NbAs4,mp-18361,1.1294,1.05564086,0.0,icsd-380109,"{19: 7, 41: 1, 33: 4}","[19, 33, 41]",197334411,K7Nb1As4