formula,material_id,band_gap,efermi,energy_above_hull,database_IDs,comp_atoms,sorted_keys_comp_atoms,comp_number,new_formula
KPSe6,mp-18625,1.8827999999999998,1.06812808,0.0,icsd-194436,"{19: 1, 15: 1, 34: 6}","[15, 19, 34]",151191346,K1P1Se6
K2CuP,mp-8446,1.1421000000000001,2.14619529,0.0,icsd-61082,"{19: 2, 29: 1, 15: 1}","[15, 19, 29]",151192291,K2Cu1P1
K2PSe3,mp-31314,1.7683,0.52091183,0.0,icsd-409814,"{19: 2, 15: 1, 34: 3}","[15, 19, 34]",151192343,K2P1Se3
K2AgP,mp-9778,1.232,1.49639947,0.0,icsd-402572,"{19: 2, 47: 1, 15: 1}","[15, 19, 47]",151192471,K2Ag1P1
K2PAu,mp-9687,0.9515,2.01925133,0.0,icsd-300201,"{19: 2, 15: 1, 79: 1}","[15, 19, 79]",151192791,K2P1Au1
K3P,mp-7897,0.2117,0.78756816,0.0,icsd-25550,"{19: 3, 15: 1}","[15, 19]",151193,K3P1
K3PSe16,mp-29947,0.8305000000000002,1.67271347,0.0,icsd-280849,"{19: 3, 15: 1, 34: 16}","[15, 19, 34]",1511933416,K3P1Se16
K3PSe4,mp-31313,1.6858,2.29850493,0.0,icsd-409813,"{19: 3, 15: 1, 34: 4}","[15, 19, 34]",151193344,K3P1Se4
KP15,mp-1211471,1.5227000000000004,4.61800451,0.0,pf-5540,"{19: 1, 15: 15}","[15, 19]",1515191,K1P15
K3ZnH5,mp-643270,3.7128,-1.25413797,0.0,icsd-658385,"{19: 3, 30: 1, 1: 5}","[1, 19, 30]",15193301,K3Zn1H5
K4P21I,mp-31280,1.2638000000000003,2.46115728,0.0,icsd-391275,"{19: 4, 15: 21, 53: 1}","[15, 19, 53]",1521194531,K4P21I1
KSb(PS3)2,mp-556609,2.2731000000000003,2.14741628,0.0,icsd-409751,"{19: 1, 51: 1, 15: 2, 16: 6}","[15, 16, 19, 51]",152166191511,K1Sb1P2S6
KLa(PS3)2,mp-560649,2.6742000000000004,2.77924845,0.0,icsd-279616,"{19: 1, 57: 1, 15: 2, 16: 6}","[15, 16, 19, 57]",152166191571,K1La1P2S6
KBi(PS3)2,mp-557437,2.2272000000000003,2.30855905,0.0,icsd-409686,"{19: 1, 83: 1, 15: 2, 16: 6}","[15, 16, 19, 83]",152166191831,K1Bi1P2S6
KCrP2S7,mp-7147,1.1285000000000003,2.44395923,0.0,icsd-91754,"{19: 1, 24: 1, 15: 2, 16: 7}","[15, 16, 19, 24]",152167191241,K1Cr1P2S7
KInP2S7,mp-22583,2.049,2.02186215,0.0,icsd-91755,"{19: 1, 49: 1, 15: 2, 16: 7}","[15, 16, 19, 49]",152167191491,K1In1P2S7
KSmP2S7,mp-554581,2.6285000000000003,2.06235612,0.0,icsd-93760,"{19: 1, 62: 1, 15: 2, 16: 7}","[15, 16, 19, 62]",152167191621,K1Sm1P2S7
KErP2S7,mp-554741,2.6558,2.15488358,0.0,icsd-415671,"{19: 1, 68: 1, 15: 2, 16: 7}","[15, 16, 19, 68]",152167191681,K1Er1P2S7
KBiP2S7,mp-23572,2.1971000000000003,2.0934363,0.0,icsd-81771,"{19: 1, 83: 1, 15: 2, 16: 7}","[15, 16, 19, 83]",152167191831,K1Bi1P2S7
KPuP2S7,mp-510007,0.036900000000000155,3.97305214,0.0,icsd-94908,"{19: 1, 94: 1, 15: 2, 16: 7}","[15, 16, 19, 94]",152167191941,K1Pu1P2S7
K2InP2S7,mp-862780,1.8783999999999998,1.69309081,0.0,icsd-248034,"{19: 2, 49: 1, 15: 2, 16: 7}","[15, 16, 19, 49]",152167192491,K2In1P2S7
K2LaP2S7,mp-542081,2.1148,2.2512913,0.0,icsd-279617,"{19: 2, 57: 1, 15: 2, 16: 7}","[15, 16, 19, 57]",152167192571,K2La1P2S7
K2NdP2S7,mp-16690,2.4898,1.69987576,0.0,icsd-95849,"{19: 2, 60: 1, 15: 2, 16: 7}","[15, 16, 19, 60]",152167192601,K2Nd1P2S7
K2SmP2S7,mp-555587,2.2591,1.25402256,0.0,icsd-161010,"{19: 2, 62: 1, 15: 2, 16: 7}","[15, 16, 19, 62]",152167192621,K2Sm1P2S7
K3CuP2S7,mp-558415,1.9684,1.79798275,0.0,icsd-85628,"{19: 3, 29: 1, 15: 2, 16: 7}","[15, 16, 19, 29]",152167193291,K3Cu1P2S7
KP2Au5S8,mp-561218,1.4084,1.6720023,0.0,icsd-85682,"{19: 1, 15: 2, 79: 5, 16: 8}","[15, 16, 19, 79]",152168191795,K1P2Au5S8
K3La(PS4)2,mp-16209,2.4497999999999998,1.82173821,0.0,icsd-279618,"{19: 3, 57: 1, 15: 2, 16: 8}","[15, 16, 19, 57]",152168193571,K3La1P2S8
K3Ce(PS4)2,mp-21557,0.0030000000000001137,3.40846828,0.0,icsd-85767,"{19: 3, 58: 1, 15: 2, 16: 8}","[15, 16, 19, 58]",152168193581,K3Ce1P2S8
K3Nd(PS4)2,mp-542974,2.4434,1.51009641,0.0,icsd-249717,"{19: 3, 60: 1, 15: 2, 16: 8}","[15, 16, 19, 60]",152168193601,K3Nd1P2S8
K3Bi(PS4)2,mp-554216,2.0899,1.7626957,0.0,icsd-81772,"{19: 3, 83: 1, 15: 2, 16: 8}","[15, 16, 19, 83]",152168193831,K3Bi1P2S8
K4P2PdS8,mp-863747,1.7116,1.37635807,0.0,icsd-165312,"{19: 4, 15: 2, 46: 1, 16: 8}","[15, 16, 19, 46]",152168194461,K4P2Pd1S8
K4VP2S9,mp-556552,1.1214000000000002,1.38053181,0.0,icsd-59850,"{19: 4, 23: 1, 15: 2, 16: 9}","[15, 16, 19, 23]",152169194231,K4V1P2S9
K(FeP)2,mp-1206409,0.0,4.08639077,0.0,pf-35129,"{19: 1, 26: 2, 15: 2}","[15, 19, 26]",152191262,K1Fe2P2
K(CoP)2,mp-1206349,0.0,4.12116809,0.0,pf-33796,"{19: 1, 27: 2, 15: 2}","[15, 19, 27]",152191272,K1Co2P2
KCuP2Se5,mp-622199,0.8444000000000003,2.35092366,0.0,icsd-85766,"{19: 1, 29: 1, 15: 2, 34: 5}","[15, 19, 29, 34]",152191291345,K1Cu1P2Se5
KY(PSe3)2,mp-571057,1.8810999999999998,1.83865977,0.0,icsd-81712,"{19: 1, 39: 1, 15: 2, 34: 6}","[15, 19, 34, 39]",152191346391,K1Y1P2Se6
KSb(PSe3)2,mp-7123,1.8059,1.78876371,0.0,icsd-90152,"{19: 1, 51: 1, 15: 2, 34: 6}","[15, 19, 34, 51]",152191346511,K1Sb1P2Se6
KLa(PSe3)2,mp-571662,1.9746999999999995,2.47512835,0.0,icsd-81300,"{19: 1, 57: 1, 15: 2, 34: 6}","[15, 19, 34, 57]",152191346571,K1La1P2Se6
KPr(PSe3)2,mp-1211534,2.0113000000000003,4.0207386,0.0,pf-15736,"{19: 1, 59: 1, 15: 2, 34: 6}","[15, 19, 34, 59]",152191346591,K1Pr1P2Se6
KBi(PSe3)2,mp-569435,1.3545,1.88532784,0.0,icsd-75500,"{19: 1, 83: 1, 15: 2, 34: 6}","[15, 19, 34, 83]",152191346831,K1Bi1P2Se6
K(PRu)2,mp-1207022,0.0,4.47084464,0.0,pf-4900,"{19: 1, 15: 2, 44: 2}","[15, 19, 44]",152191442,K1P2Ru2
K(PRh)2,mp-12098,0.0,4.3334763,0.0,icsd-641292,"{19: 1, 15: 2, 45: 2}","[15, 19, 45]",152191452,K1P2Rh2
KTeP2,mp-1188829,1.2093000000000003,2.74006372,0.0,icsd-249937,"{19: 1, 52: 1, 15: 2}","[15, 19, 52]",152191521,K1Te1P2
K(PIr)2,mp-1206920,0.0,5.17193302,0.0,pf-14052,"{19: 1, 15: 2, 77: 2}","[15, 19, 77]",152191772,K1P2Ir2
K2ScP2Se7,mp-1195538,1.7243,1.05938287,0.0,icsd-239570,"{19: 2, 21: 1, 15: 2, 34: 7}","[15, 19, 21, 34]",152192211347,K2Sc1P2Se7
K2GaP2,mp-15417,1.2486,1.68149742,0.0,icsd-300144,"{19: 2, 31: 1, 15: 2}","[15, 19, 31]",152192311,K2Ga1P2
K2Hg(PSe3)2,mp-568855,1.3921999999999999,1.03480015,0.0,icsd-50960,"{19: 2, 80: 1, 15: 2, 34: 6}","[15, 19, 34, 80]",152192346801,K2Hg1P2Se6
K2LaP2Se7,mp-542078,1.4116,1.77902101,0.0,icsd-279611,"{19: 2, 57: 1, 15: 2, 34: 7}","[15, 19, 34, 57]",152192347571,K2La1P2Se7
K2In(PSe4)2,mp-581517,0.9655999999999998,1.47086018,0.0,icsd-50933,"{19: 2, 49: 1, 15: 2, 34: 8}","[15, 19, 34, 49]",152192348491,K2In1P2Se8
K2P2Pd,mp-7505,1.0789,2.40998704,0.0,icsd-15584,"{19: 2, 15: 2, 46: 1}","[15, 19, 46]",152192461,K2P2Pd1
K3Cu3P2,mp-7439,1.2892000000000001,2.49067692,0.0,icsd-12163,"{19: 3, 29: 3, 15: 2}","[15, 19, 29]",152193293,K3Cu3P2
K3La(PSe4)2,mp-542079,1.4575,1.65007151,0.0,icsd-279612,"{19: 3, 57: 1, 15: 2, 34: 8}","[15, 19, 34, 57]",152193348571,K3La1P2Se8
K3P2AuSe8,mp-866660,0.9631999999999998,1.1066412,0.0,icsd-165321,"{19: 3, 15: 2, 79: 1, 34: 8}","[15, 19, 34, 79]",152193348791,K3P2Au1Se8
K3InP2,mp-20256,0.7887,1.82312996,0.0,icsd-73281,"{19: 3, 49: 1, 15: 2}","[15, 19, 49]",152193491,K3In1P2
K4ZnP2,mp-11719,0.9455,0.56771953,0.0,icsd-67261,"{19: 4, 30: 1, 15: 2}","[15, 19, 30]",152194301,K4Zn1P2
K4CdP2,mp-28302,0.8246,0.51275325,0.0,icsd-61084,"{19: 4, 48: 1, 15: 2}","[15, 19, 48]",152194481,K4Cd1P2
K4HgP2,mp-8753,0.9356000000000001,0.6951581,0.0,icsd-67263,"{19: 4, 80: 1, 15: 2}","[15, 19, 80]",152194801,K4Hg1P2
K5P2Au,mp-14624,0.48150000000000004,1.46096326,0.0,icsd-40700,"{19: 5, 15: 2, 79: 1}","[15, 19, 79]",152195791,K5P2Au1
K5Th(PS4)3,mp-628680,1.9759999999999998,1.76302514,0.0,icsd-280656,"{19: 5, 90: 1, 15: 3, 16: 12}","[15, 16, 19, 90]",1531612195901,K5Th1P3S12
K2Cu(PS3)3,mp-559644,1.9435,1.91175891,0.0,icsd-85626,"{19: 2, 29: 1, 15: 3, 16: 9}","[15, 16, 19, 29]",153169192291,K2Cu1P3S9
KZn4P3,mp-1087504,0.5011000000000001,3.11202373,0.0,icsd-262034,"{19: 1, 30: 4, 15: 3}","[15, 19, 30]",153191304,K1Zn4P3
KCd4P3,mp-1080467,0.0,2.35097802,0.0,icsd-262033,"{19: 1, 48: 4, 15: 3}","[15, 19, 48]",153191484,K1Cd4P3
K2P3,mp-569857,1.0327000000000002,2.26680503,0.0,icsd-33260,"{19: 2, 15: 3}","[15, 19]",153192,K2P3
K2In2P3Se10,mp-1199715,1.5675000000000001,1.47546964,0.0,icsd-248036,"{19: 2, 49: 2, 15: 3, 34: 10}","[15, 19, 34, 49]",1531923410492,K2In2P3Se10
K2Th(PSe3)3,mp-568203,1.5188,1.85129677,0.0,icsd-98356,"{19: 2, 90: 1, 15: 3, 34: 9}","[15, 19, 34, 90]",153192349901,K2Th1P3Se9
K3As(PSe3)3,mp-1197620,1.5724,0.90744391,0.0,icsd-260943,"{19: 3, 33: 1, 15: 3, 34: 9}","[15, 19, 33, 34]",153193331349,K3As1P3Se9
K4P3,mp-28424,0.0,2.28638938,0.0,icsd-64625,"{19: 4, 15: 3}","[15, 19]",153194,K4P3
K4Ge(PS3)4,mp-1195305,2.1265,3.20197884,0.0,icsd-237790,"{19: 4, 32: 1, 15: 4, 16: 12}","[15, 16, 19, 32]",1541612194321,K4Ge1P4S12
K3Nd3(PS4)4,mp-555172,2.4204,1.39166593,0.0,icsd-249719,"{19: 3, 60: 3, 15: 4, 16: 16}","[15, 16, 19, 60]",1541616193603,K3Nd3P4S16
K3Gd3(PS4)4,mp-604889,1.4989999999999999,1.55684079,0.0,icsd-416933,"{19: 3, 64: 3, 15: 4, 16: 16}","[15, 16, 19, 64]",1541616193643,K3Gd3P4S16
K9Ce(PS4)4,mp-1212015,0.34209999999999985,3.20175215,0.0,pf-5448,"{19: 9, 58: 1, 15: 4, 16: 16}","[15, 16, 19, 58]",1541616199581,K9Ce1P4S16
K9Bi(PS4)4,mp-554554,2.0563000000000002,1.511922,0.0,icsd-173368,"{19: 9, 83: 1, 15: 4, 16: 16}","[15, 16, 19, 83]",1541616199831,K9Bi1P4S16
K4Ge(PSe3)4,mp-1195433,1.3986,1.11600409,0.0,icsd-237793,"{19: 4, 32: 1, 15: 4, 34: 12}","[15, 19, 32, 34]",1541943213412,K4Ge1P4Se12
K3Ti2P5S18,mp-1211873,1.1872999999999998,1.67355262,0.0,pf-33200,"{19: 3, 22: 2, 15: 5, 16: 18}","[15, 16, 19, 22]",1551618193222,K3Ti2P5S18
K3Sn2P5S18,mp-1211845,1.3182999999999998,1.81131096,0.0,pf-1779,"{19: 3, 50: 2, 15: 5, 16: 18}","[15, 16, 19, 50]",1551618193502,K3Sn2P5S18
K3P5RuSe10,mp-568011,0.9415,2.1161202,0.0,icsd-406200,"{19: 3, 15: 5, 44: 1, 34: 10}","[15, 19, 34, 44]",1551933410441,K3P5Ru1Se10
K2NaH5(CO4)2,mp-505771,4.3382000000000005,-0.63285649,0.0,icsd-77359,"{19: 2, 11: 1, 1: 5, 6: 2, 8: 8}","[1, 6, 8, 11, 19]",156288111192,K2Na1H5C2O8
K2NaZn2H5(C2O7)2,mp-766427,4.3942,0.12847175,0.0,icsd-401833,"{19: 2, 11: 1, 30: 2, 1: 5, 6: 4, 8: 14}","[1, 6, 8, 11, 19, 30]",1564814111192302,K2Na1Zn2H5C4O14
K4AsH5S3O16,mp-557941,3.9373,-0.77235694,0.0,icsd-157456,"{19: 4, 33: 1, 1: 5, 16: 3, 8: 16}","[1, 8, 16, 19, 33]",15816163194331,K4As1H5S3O16
K2SbH5O6,mp-1194509,3.1185,0.31357036,0.0,icsd-422765,"{19: 2, 51: 1, 1: 5, 8: 6}","[1, 8, 19, 51]",1586192511,K2Sb1H5O6
KP2H5O8,mp-1197171,5.6194999999999995,4.40331173,0.0,icsd-23097,"{19: 1, 15: 2, 1: 5, 8: 8}","[1, 8, 15, 19]",1588152191,K1P2H5O8
KH5S2O9,mp-541415,5.4879,-1.2374898,0.0,icsd-74895,"{19: 1, 1: 5, 16: 2, 8: 9}","[1, 8, 16, 19]",1589162191,K1H5S2O9
K2H5F7,mp-29330,6.911899999999999,-4.45449435,0.0,icsd-202106,"{19: 2, 1: 5, 9: 7}","[1, 9, 19]",1597192,K2H5F7
K2Ag6Sn3S10,mp-559880,0.7928000000000002,2.30347541,0.0,icsd-170317,"{19: 2, 47: 6, 50: 3, 16: 10}","[16, 19, 47, 50]",1610192476503,K2Ag6Sn3S10
K2Sn3(SbS5)2,mp-1195395,1.8165999999999998,4.15174319,0.0,icsd-428443,"{19: 2, 50: 3, 51: 2, 16: 10}","[16, 19, 50, 51]",1610192503512,K2Sn3Sb2S10
K3Cu2(BiS2)5,mp-556522,0.5758000000000001,3.90307062,0.0,icsd-93369,"{19: 3, 29: 2, 83: 5, 16: 10}","[16, 19, 29, 83]",1610193292835,K3Cu2Bi5S10
K7(FeS2)5,mp-1204678,0.0,2.24768064,0.0,icsd-425069,"{19: 7, 26: 5, 16: 10}","[16, 19, 26]",1610197265,K7Fe5S10
K2Y4Sn2S11,mp-560785,1.5806,3.24832053,0.0,icsd-75073,"{19: 2, 39: 4, 50: 2, 16: 11}","[16, 19, 39, 50]",1611192394502,K2Y4Sn2S11
K2BaNb2S11,mp-1212599,0.9735999999999998,2.48751173,0.0,pf-17048,"{19: 2, 56: 1, 41: 2, 16: 11}","[16, 19, 41, 56]",1611192412561,K2Ba1Nb2S11
K3Ta2AsS11,mp-1211748,1.8918000000000001,3.63363082,0.0,pf-39708,"{19: 3, 73: 2, 33: 1, 16: 11}","[16, 19, 33, 73]",1611193331732,K3Ta2As1S11
K3Nb2S11,mp-680410,1.3803000000000003,1.58348941,0.0,icsd-391135,"{19: 3, 41: 2, 16: 11}","[16, 19, 41]",1611193412,K3Nb2S11
K3Ta2S11,mp-558967,1.7172999999999998,1.85807143,0.0,icsd-391137,"{19: 3, 73: 2, 16: 11}","[16, 19, 73]",1611193732,K3Ta2S11
K4Ta2S11,mp-18664,1.7096000000000002,1.28205689,0.0,icsd-410672,"{19: 4, 73: 2, 16: 11}","[16, 19, 73]",1611194732,K4Ta2S11
KS,mp-1287,1.469,0.84383388,0.0,icsd-73171,"{19: 1, 16: 1}","[16, 19]",161191,K1S1
KCuS,mp-28270,1.8615000000000002,1.0280585,0.0,icsd-49008,"{19: 1, 29: 1, 16: 1}","[16, 19, 29]",161191291,K1Cu1S1
KAuS,mp-7077,2.1003000000000003,1.1049047,0.0,icsd-656711,"{19: 1, 79: 1, 16: 1}","[16, 19, 79]",161191791,K1Au1S1
K2S,mp-1022,2.3201,-0.34024571,0.0,icsd-60439,"{19: 2, 16: 1}","[16, 19]",161192,K2S1
K4Ti3S14,mp-541735,1.2064,2.26138297,0.0,icsd-202464,"{19: 4, 22: 3, 16: 14}","[16, 19, 22]",1614194223,K4Ti3S14
K6U2(Cu4S5)3,mp-559811,0.5553999999999997,3.11886226,0.0,icsd-262934,"{19: 6, 92: 2, 29: 12, 16: 15}","[16, 19, 29, 92]",16151962912922,K6U2Cu12S15
CsK5Zn4Sn5S17,mp-641018,1.6840000000000002,1.40976015,0.0,icsd-415016,"{55: 1, 19: 5, 30: 4, 50: 5, 16: 17}","[16, 19, 30, 50, 55]",1617195304505551,Cs1K5Zn4Sn5S17
K2H6Pt,mp-643279,3.9976000000000003,-2.20512807,0.0,icsd-78389,"{19: 2, 1: 6, 78: 1}","[1, 19, 78]",16192781,K2H6Pt1
KCrS2,mp-4026,1.1644,3.77838122,0.0,icsd-25723,"{19: 1, 24: 1, 16: 2}","[16, 19, 24]",162191241,K1Cr1S2
K(FeS)2,mp-1070151,0.0,5.07078193,0.0,icsd-186572,"{19: 1, 26: 2, 16: 2}","[16, 19, 26]",162191262,K1Fe2S2
K(CoS)2,mp-12079,0.0,4.64839828,0.0,icsd-623956,"{19: 1, 27: 2, 16: 2}","[16, 19, 27]",162191272,K1Co2S2
KGaS2,mp-17650,2.5331,0.93658194,0.0,icsd-107928,"{19: 1, 31: 1, 16: 2}","[16, 19, 31]",162191311,K1Ga1S2
KYS2,mp-1006888,2.3221,1.75555334,0.0,icsd-192107,"{19: 1, 39: 1, 16: 2}","[16, 19, 39]",162191391,K1Y1S2
KZrS2,mp-1002123,0.0,4.33802879,0.0,icsd-641350,"{19: 1, 40: 1, 16: 2}","[16, 19, 40]",162191401,K1Zr1S2
KInS2,mp-505412,1.9107,1.45945073,0.0,icsd-300153,"{19: 1, 49: 1, 16: 2}","[16, 19, 49]",162191491,K1In1S2
KSbS2,mp-11703,1.601,2.10617461,0.0,icsd-641324,"{19: 1, 51: 1, 16: 2}","[16, 19, 51]",162191511,K1Sb1S2
KLaS2,mp-15781,2.7005,2.51456866,0.0,icsd-192102,"{19: 1, 57: 1, 16: 2}","[16, 19, 57]",162191571,K1La1S2
KCeS2,mp-7329,0.0,4.59612091,0.0,icsd-621439,"{19: 1, 58: 1, 16: 2}","[16, 19, 58]",162191581,K1Ce1S2
KPrS2,mp-15782,2.2688,1.38579779,0.0,icsd-44943,"{19: 1, 59: 1, 16: 2}","[16, 19, 59]",162191591,K1Pr1S2
KNdS2,mp-1006885,2.2595,1.42509183,0.0,icsd-641272,"{19: 1, 60: 1, 16: 2}","[16, 19, 60]",162191601,K1Nd1S2
KSmS2,mp-15783,2.2759,1.54744585,0.0,icsd-44944,"{19: 1, 62: 1, 16: 2}","[16, 19, 62]",162191621,K1Sm1S2
KEuS2,mp-1018137,0.0,1.33147517,0.0,icsd-631365,"{19: 1, 63: 1, 16: 2}","[16, 19, 63]",162191631,K1Eu1S2
KGdS2,mp-15784,1.8308,1.79235657,0.0,icsd-44945,"{19: 1, 64: 1, 16: 2}","[16, 19, 64]",162191641,K1Gd1S2
KTbS2,mp-999129,2.3136,1.68157753,0.0,icsd-641329,"{19: 1, 65: 1, 16: 2}","[16, 19, 65]",162191651,K1Tb1S2
KDyS2,mp-15785,2.3337000000000003,1.69879985,0.0,icsd-44946,"{19: 1, 66: 1, 16: 2}","[16, 19, 66]",162191661,K1Dy1S2
KHoS2,mp-15786,2.3505000000000003,1.67989461,0.0,icsd-639366,"{19: 1, 67: 1, 16: 2}","[16, 19, 67]",162191671,K1Ho1S2
KErS2,mp-4326,2.3727,1.78888375,0.0,icsd-108429,"{19: 1, 68: 1, 16: 2}","[16, 19, 68]",162191681,K1Er1S2
KLuS2,mp-1007636,2.4307,1.76425765,0.0,icsd-192106,"{19: 1, 71: 1, 16: 2}","[16, 19, 71]",162191711,K1Lu1S2
K2MnS2,mp-8713,0.9719999999999998,1.8534418,0.0,icsd-65453,"{19: 2, 25: 1, 16: 2}","[16, 19, 25]",162192251,K2Mn1S2
K2PdS2,mp-1068941,1.117,1.64574095,0.0,icsd-641296,"{19: 2, 46: 1, 16: 2}","[16, 19, 46]",162192461,K2Pd1S2
K2PtS2,mp-7928,1.2355999999999998,2.70672237,0.0,icsd-26258,"{19: 2, 78: 1, 16: 2}","[16, 19, 78]",162192781,K2Pt1S2
K2HgS2,mp-28859,2.1351,0.0554539,0.0,icsd-74500,"{19: 2, 80: 1, 16: 2}","[16, 19, 80]",162192801,K2Hg1S2
K6Nb4S25,mp-560348,1.3047,1.72103563,0.0,icsd-82505,"{19: 6, 41: 4, 16: 25}","[16, 19, 41]",1625196414,K6Nb4S25
KS3,mp-1196514,1.8888999999999998,1.29984238,0.0,icsd-247958,"{19: 1, 16: 3}","[16, 19]",163191,K1S3
KFe2S3,mp-22035,0.0,3.20194448,0.0,icsd-632394,"{19: 1, 26: 2, 16: 3}","[16, 19, 26]",163191262,K1Fe2S3
KZrCuS3,mp-9317,0.5924999999999998,3.54455524,0.0,icsd-80624,"{19: 1, 40: 1, 29: 1, 16: 3}","[16, 19, 29, 40]",163191291401,K1Zr1Cu1S3
KHfCuS3,mp-9855,0.7570000000000001,3.82147506,0.0,icsd-409293,"{19: 1, 72: 1, 29: 1, 16: 3}","[16, 19, 29, 72]",163191291721,K1Hf1Cu1S3
KThCuS3,mp-12365,2.0422000000000002,3.08515447,0.0,icsd-170864,"{19: 1, 90: 1, 29: 1, 16: 3}","[16, 19, 29, 90]",163191291901,K1Th1Cu1S3
KUCuS3,mp-13349,0.0,5.07863165,0.0,icsd-249701,"{19: 1, 92: 1, 29: 1, 16: 3}","[16, 19, 29, 92]",163191291921,K1U1Cu1S3
KNpCuS3,mp-867312,0.0,5.20843517,0.0,icsd-249966,"{19: 1, 93: 1, 29: 1, 16: 3}","[16, 19, 29, 93]",163191291931,K1Np1Cu1S3
KCu2AsS3,mp-554421,1.1692000000000005,3.89500935,0.0,icsd-75429,"{19: 1, 29: 2, 33: 1, 16: 3}","[16, 19, 29, 33]",163191292331,K1Cu2As1S3
KCu4S3,mp-27677,0.0,4.80878593,0.0,icsd-602356,"{19: 1, 29: 4, 16: 3}","[16, 19, 29]",163191294,K1Cu4S3
KGeAuS3,mp-554859,1.9973999999999998,1.03197866,0.0,icsd-408684,"{19: 1, 32: 1, 79: 1, 16: 3}","[16, 19, 32, 79]",163191321791,K1Ge1Au1S3
K(MoS)3,mp-8116,0.0,4.97406225,0.0,icsd-641249,"{19: 1, 42: 3, 16: 3}","[16, 19, 42]",163191423,K1Mo3S3
KNpAgS3,mp-865937,0.0,4.24165046,0.0,icsd-249969,"{19: 1, 93: 1, 47: 1, 16: 3}","[16, 19, 47, 93]",163191471931,K1Np1Ag1S3
KAg5S3,mp-28468,0.6972000000000003,2.34987689,0.0,icsd-237452,"{19: 1, 47: 5, 16: 3}","[16, 19, 47]",163191475,K1Ag5S3
KPt2S3,mp-30533,1.2738999999999998,2.70490192,0.0,icsd-40062,"{19: 1, 78: 2, 16: 3}","[16, 19, 78]",163191782,K1Pt2S3
K2S3,mp-7667,1.2855,1.63117306,0.0,icsd-1263,"{19: 2, 16: 3}","[16, 19]",163192,K2S3
K2TiS3,mp-28766,1.1215,1.53568085,0.0,icsd-72377,"{19: 2, 22: 1, 16: 3}","[16, 19, 22]",163192221,K2Ti1S3
K2Ag4S3,mp-7494,0.12829999999999986,2.198126,0.0,icsd-863,"{19: 2, 47: 4, 16: 3}","[16, 19, 47]",163192474,K2Ag4S3
K2TeS3,mp-29692,2.3419000000000003,0.50655784,0.0,icsd-280023,"{19: 2, 52: 1, 16: 3}","[16, 19, 52]",163192521,K2Te1S3
K3FeS3,mp-1193931,0.0,1.6845692,0.0,icsd-425068,"{19: 3, 26: 1, 16: 3}","[16, 19, 26]",163193261,K3Fe1S3
K3GaS3,mp-541686,2.8021,0.44919972,0.0,icsd-300169,"{19: 3, 31: 1, 16: 3}","[16, 19, 31]",163193311,K3Ga1S3
K3GeS3,mp-14434,2.4164,1.0315375,0.0,icsd-47111,"{19: 3, 32: 1, 16: 3}","[16, 19, 32]",163193321,K3Ge1S3
K3AsS3,mp-1193111,2.5958,0.47165702,0.0,icsd-610764,"{19: 3, 33: 1, 16: 3}","[16, 19, 33]",163193331,K3As1S3
K3SbS3,mp-1194266,2.6955,0.87661427,0.0,icsd-641323,"{19: 3, 51: 1, 16: 3}","[16, 19, 51]",163193511,K3Sb1S3
KBe(H2N)3,mp-24355,2.8280000000000003,-0.89522471,0.0,icsd-2332,"{19: 1, 4: 1, 1: 6, 7: 3}","[1, 4, 7, 19]",164173191,K1Be1H6N3
KV(CuS2)2,mp-6376,1.076,2.72025673,0.0,icsd-402424,"{19: 1, 23: 1, 29: 2, 16: 4}","[16, 19, 23, 29]",164191231292,K1V1Cu2S4
KY2CuS4,mp-11602,1.0114999999999998,3.42943155,0.0,icsd-97557,"{19: 1, 39: 2, 29: 1, 16: 4}","[16, 19, 29, 39]",164191291392,K1Y2Cu1S4
KNd2CuS4,mp-11603,0.9129,3.12262457,0.0,icsd-97558,"{19: 1, 60: 2, 29: 1, 16: 4}","[16, 19, 29, 60]",164191291602,K1Nd2Cu1S4
KSm2CuS4,mp-11604,0.5692000000000004,3.21814736,0.0,icsd-97559,"{19: 1, 62: 2, 29: 1, 16: 4}","[16, 19, 29, 62]",164191291622,K1Sm2Cu1S4
KTb2CuS4,mp-11605,0.9798999999999998,3.44343996,0.0,icsd-97560,"{19: 1, 65: 2, 29: 1, 16: 4}","[16, 19, 29, 65]",164191291652,K1Tb2Cu1S4
KHo2CuS4,mp-11606,1.036,3.47127269,0.0,icsd-97561,"{19: 1, 67: 2, 29: 1, 16: 4}","[16, 19, 29, 67]",164191291672,K1Ho2Cu1S4
KCu(BiS2)2,mp-558063,0.7213999999999996,3.93955068,0.0,icsd-91297,"{19: 1, 29: 1, 83: 2, 16: 4}","[16, 19, 29, 83]",164191291832,K1Cu1Bi2S4
KNb(CuS2)2,mp-1106233,1.7079000000000004,2.51727437,0.0,icsd-628195,"{19: 1, 41: 1, 29: 2, 16: 4}","[16, 19, 29, 41]",164191292411,K1Nb1Cu2S4
KYGeS4,mp-863755,2.4131,1.55888529,0.0,icsd-603205,"{19: 1, 39: 1, 32: 1, 16: 4}","[16, 19, 32, 39]",164191321391,K1Y1Ge1S4
KLaGeS4,mp-559043,2.0994999999999995,2.57116241,0.0,icsd-73970,"{19: 1, 57: 1, 32: 1, 16: 4}","[16, 19, 32, 57]",164191321571,K1La1Ge1S4
KNdGeS4,mp-861866,2.3670999999999998,1.75383367,0.0,icsd-603182,"{19: 1, 60: 1, 32: 1, 16: 4}","[16, 19, 32, 60]",164191321601,K1Nd1Ge1S4
KTbGeS4,mp-12011,2.2297,1.43768715,0.0,icsd-409811,"{19: 1, 65: 1, 32: 1, 16: 4}","[16, 19, 32, 65]",164191321651,K1Tb1Ge1S4
KGeBiS4,mp-866646,1.6686,2.0047561,0.0,icsd-421486,"{19: 1, 32: 1, 83: 1, 16: 4}","[16, 19, 32, 83]",164191321831,K1Ge1Bi1S4