formula,material_id,band_gap,efermi,energy_above_hull,database_IDs,comp_atoms,sorted_keys_comp_atoms,comp_number,new_formula
K7TaAs4,mp-18073,1.0407000000000002,1.15590389,0.0,icsd-380110,"{19: 7, 73: 1, 33: 4}","[19, 33, 73]",197334731,K7Ta1As4
K8Zr6MnBr20,mp-1212020,0.14250000000000007,2.28776808,0.0,pf-41413,"{19: 8, 40: 6, 25: 1, 35: 20}","[19, 25, 35, 40]",1982513520406,K8Zr6Mn1Br20
K8Tl10Zn,mp-1204657,0.10639999999999983,2.31843064,0.0,icsd-165614,"{19: 8, 81: 10, 30: 1}","[19, 30, 81]",1983018110,K8Tl10Zn1
K8NbSnAs5,mp-1194900,1.2448000000000001,1.33733957,0.0,icsd-428027,"{19: 8, 41: 1, 50: 1, 33: 5}","[19, 33, 41, 50]",198335411501,K8Nb1Sn1As5
K8NbAs5Pb,mp-567424,1.1994,1.32122,0.0,icsd-281026,"{19: 8, 41: 1, 33: 5, 82: 1}","[19, 33, 41, 82]",198335411821,K8Nb1As5Pb1
K11Np2H9(S5O22)2,mp-1204429,0.5550999999999999,1.81857575,0.0,icsd-89421,"{19: 11, 93: 2, 1: 9, 16: 10, 8: 44}","[1, 8, 16, 19, 93]",1984416101911932,K11Np2H9S10O44
K8In11,mp-582929,0.0,2.83987903,0.0,icsd-370002,"{19: 8, 49: 11}","[19, 49]",1984911,K8In11
K8SnSb4,mp-18633,0.31899999999999995,1.36324858,0.0,icsd-44679,"{19: 8, 50: 1, 51: 4}","[19, 50, 51]",198501514,K8Sn1Sb4
K8Tl11,mp-569570,0.0,2.64427962,0.0,icsd-370009,"{19: 8, 81: 11}","[19, 81]",1988111,K8Tl11
K9InSe7,mp-568644,1.8024,0.30466969,0.0,icsd-419590,"{19: 9, 49: 1, 34: 7}","[19, 34, 49]",199347491,K9In1Se7
K4BeP2,mp-9872,1.1360999999999999,0.63933883,0.0,icsd-300110,"{19: 4, 4: 1, 15: 2}","[4, 15, 19]",41152194,K4Be1P2
K2Zr6BeCl15,mp-1211747,0.0,1.8913476,0.0,pf-28246,"{19: 2, 40: 6, 4: 1, 17: 15}","[4, 17, 19, 40]",411715192406,K2Zr6Be1Cl15
K3Zr6BeCl15,mp-1211761,0.9268999999999998,2.4459643,0.0,pf-17672,"{19: 3, 40: 6, 4: 1, 17: 15}","[4, 17, 19, 40]",411715193406,K3Zr6Be1Cl15
K2BeCl4,mp-1212143,5.241099999999999,4.0942873,0.0,pf-26074,"{19: 2, 4: 1, 17: 4}","[4, 17, 19]",41174192,K2Be1Cl4
K4BeAs2,mp-29584,0.8851000000000001,0.36027274,0.0,icsd-300111,"{19: 4, 4: 1, 33: 2}","[4, 19, 33]",41194332,K4Be1As2
K8Zr6BeBr20,mp-1211836,0.9222000000000001,2.34904955,0.0,pf-11341,"{19: 8, 40: 6, 4: 1, 35: 20}","[4, 19, 35, 40]",411983520406,K8Zr6Be1Br20
K2BeO2,mp-27915,3.0937,0.7430354,0.0,icsd-23633,"{19: 2, 4: 1, 8: 2}","[4, 8, 19]",4182192,K2Be1O2
KBePO4,mp-7324,5.2634,0.92209213,0.0,icsd-4255,"{19: 1, 4: 1, 15: 1, 8: 4}","[4, 8, 15, 19]",4184151191,K1Be1P1O4
KBe(PO3)3,mp-560431,5.8102,0.58837701,0.0,icsd-40866,"{19: 1, 4: 1, 15: 3, 8: 9}","[4, 8, 15, 19]",4189153191,K1Be1P3O9
KBeF3,mp-1211678,7.061299999999999,-3.56559682,0.0,pf-785,"{19: 1, 4: 1, 9: 3}","[4, 9, 19]",4193191,K1Be1F3
K2BeF4,mp-5185,6.9319,-2.60811254,0.0,icsd-153080,"{19: 2, 4: 1, 9: 4}","[4, 9, 19]",4194192,K2Be1F4
KYBeF6,mp-1211247,7.369400000000001,5.0255082,0.0,pf-40006,"{19: 1, 39: 1, 4: 1, 9: 6}","[4, 9, 19, 39]",4196191391,K1Y1Be1F6
KDyBeF6,mp-1211551,7.3825,5.02307583,0.0,pf-28321,"{19: 1, 66: 1, 4: 1, 9: 6}","[4, 9, 19, 66]",4196191661,K1Dy1Be1F6
KHoBeF6,mp-558826,7.4029,-2.00863256,0.0,icsd-2143,"{19: 1, 67: 1, 4: 1, 9: 6}","[4, 9, 19, 67]",4196191671,K1Ho1Be1F6
KErBeF6,mp-1211447,7.4221,5.03772611,0.0,pf-8537,"{19: 1, 68: 1, 4: 1, 9: 6}","[4, 9, 19, 68]",4196191681,K1Er1Be1F6
KTmBeF6,mp-1211245,7.4658,5.13960062,0.0,pf-27744,"{19: 1, 69: 1, 4: 1, 9: 6}","[4, 9, 19, 69]",4196191691,K1Tm1Be1F6
KLuBeF6,mp-1211243,7.475899999999999,5.15479632,0.0,pf-6642,"{19: 1, 71: 1, 4: 1, 9: 6}","[4, 9, 19, 71]",4196191711,K1Lu1Be1F6
K2Na4Be2O5,mp-14324,2.6224999999999996,1.0321174,0.0,icsd-33849,"{19: 2, 11: 4, 4: 2, 8: 5}","[4, 8, 11, 19]",4285114192,K2Na4Be2O5
K3NaBe2F8,mp-1211627,6.6922,-2.79772763,0.0,pf-20201,"{19: 3, 11: 1, 4: 2, 9: 8}","[4, 9, 11, 19]",4298111193,K3Na1Be2F8
K4Be3O5,mp-28158,3.2353,0.18225167,0.0,icsd-33808,"{19: 4, 4: 3, 8: 5}","[4, 8, 19]",4385194,K4Be3O5
K2Mn2Be3F12,mp-699937,4.7164,-1.02010195,0.0,icsd-280610,"{19: 2, 25: 2, 4: 3, 9: 12}","[4, 9, 19, 25]",43912192252,K2Mn2Be3F12
KBe3ZnF9,mp-18509,5.4514,-3.00730447,0.0,icsd-18022,"{19: 1, 4: 3, 30: 1, 9: 9}","[4, 9, 19, 30]",4399191301,K1Be3Zn1F9
K6Be4C6O19,mp-555866,4.8702000000000005,-0.86553347,0.0,icsd-412642,"{19: 6, 4: 4, 6: 6, 8: 19}","[4, 6, 8, 19]",4466819196,K6Be4C6O19
KZr6CCl15,mp-570066,1.1123,1.38965145,0.0,icsd-202462,"{19: 1, 40: 6, 6: 1, 17: 15}","[6, 17, 19, 40]",611715191406,K1Zr6C1Cl15
KHf6CCl15,mp-1211876,1.1511,2.15623176,0.0,pf-36608,"{19: 1, 72: 6, 6: 1, 17: 15}","[6, 17, 19, 72]",611715191726,K1Hf6C1Cl15
K4Zr6CBr18,mp-627575,1.1749999999999998,2.08463935,0.0,icsd-51111,"{19: 4, 40: 6, 6: 1, 35: 18}","[6, 19, 35, 40]",611943518406,K4Zr6C1Br18
K2CN2,mp-10408,3.1433,0.54709899,0.0,icsd-423580,"{19: 2, 6: 1, 7: 2}","[6, 7, 19]",6172192,K2C1N2
K2Mn3V2CO11,mp-1195006,2.1887,1.12081321,0.0,icsd-425514,"{19: 2, 25: 3, 23: 2, 6: 1, 8: 11}","[6, 8, 19, 23, 25]",61811192232253,K2Mn3V2C1O11
KCO3,mp-1106094,0.8755999999999999,-2.07719981,0.0,icsd-2326,"{19: 1, 6: 1, 8: 3}","[6, 8, 19]",6183191,K1C1O3
KAgCO3,mp-541966,2.2257,0.55496219,0.0,icsd-31021,"{19: 1, 47: 1, 6: 1, 8: 3}","[6, 8, 19, 47]",6183191471,K1Ag1C1O3
K2CO3,mp-3963,3.649,0.09809253,0.0,icsd-10191,"{19: 2, 6: 1, 8: 3}","[6, 8, 19]",6183192,K2C1O3
KCaCO3F,mp-6867,4.3552,0.47038234,0.0,icsd-154681,"{19: 1, 20: 1, 6: 1, 8: 3, 9: 1}","[6, 8, 9, 19, 20]",618391191201,K1Ca1C1O3F1
KCuCO3F,mp-555901,0.0,1.05858367,0.0,icsd-75401,"{19: 1, 29: 1, 6: 1, 8: 3, 9: 1}","[6, 8, 9, 19, 29]",618391191291,K1Cu1C1O3F1
KSrCO3F,mp-865427,4.1032,-0.01300866,0.0,icsd-262231,"{19: 1, 38: 1, 6: 1, 8: 3, 9: 1}","[6, 8, 9, 19, 38]",618391191381,K1Sr1C1O3F1
KGdCO3F2,mp-554005,0.4727,0.70819011,0.0,icsd-79945,"{19: 1, 64: 1, 6: 1, 8: 3, 9: 2}","[6, 8, 9, 19, 64]",618392191641,K1Gd1C1O3F2
KPuCO5,mp-561433,0.4342999999999999,3.33353649,0.0,icsd-15685,"{19: 1, 94: 1, 6: 1, 8: 5}","[6, 8, 19, 94]",6185191941,K1Pu1C1O5
KLa5(CCl5)2,mp-571240,1.7157999999999998,4.45450979,0.0,icsd-400813,"{19: 1, 57: 5, 6: 2, 17: 10}","[6, 17, 19, 57]",621710191575,K1La5C2Cl10
K2PtC2,mp-976876,0.9937999999999998,1.18412465,0.0,icsd-421492,"{19: 2, 78: 1, 6: 2}","[6, 19, 78]",62192781,K2Pt1C2
K2Re3C2Se5N2,mp-680168,1.1218,1.89474001,0.0,icsd-280259,"{19: 2, 75: 3, 6: 2, 34: 5, 7: 2}","[6, 7, 19, 34, 75]",6272192345753,K2Re3C2Se5N2
KC2N3,mp-567823,3.7368,3.14942946,0.0,icsd-411933,"{19: 1, 6: 2, 7: 3}","[6, 7, 19]",6273191,K1C2N3
KNa22C2S9ClO42,mp-23660,4.3544,5.23119247,0.0,icsd-2852,"{19: 1, 11: 22, 6: 2, 16: 9, 17: 1, 8: 42}","[6, 8, 11, 16, 17, 19]",628421122169171191,K1Na22C2S9Cl1O42
KY(CO3)2,mp-1211274,4.3035,0.48220181,0.0,pf-13163,"{19: 1, 39: 1, 6: 2, 8: 6}","[6, 8, 19, 39]",6286191391,K1Y1C2O6
KNd(CO3)2,mp-557940,4.3598,0.57458656,0.0,icsd-407225,"{19: 1, 60: 1, 6: 2, 8: 6}","[6, 8, 19, 60]",6286191601,K1Nd1C2O6
KSm(CO3)2,mp-1211301,4.3453,0.23815442,0.0,pf-24941,"{19: 1, 62: 1, 6: 2, 8: 6}","[6, 8, 19, 62]",6286191621,K1Sm1C2O6
KEu(CO3)2,mp-1211491,0.0,-0.05143077,0.0,pf-35454,"{19: 1, 63: 1, 6: 2, 8: 6}","[6, 8, 19, 63]",6286191631,K1Eu1C2O6
KGd(CO3)2,mp-9806,2.4574999999999996,0.28470586,0.0,icsd-407226,"{19: 1, 64: 1, 6: 2, 8: 6}","[6, 8, 19, 64]",6286191641,K1Gd1C2O6
KTb(CO3)2,mp-1211249,4.4195,0.45001414,0.0,pf-23614,"{19: 1, 65: 1, 6: 2, 8: 6}","[6, 8, 19, 65]",6286191651,K1Tb1C2O6
KDy(CO3)2,mp-9807,4.2456,0.46445319,0.0,icsd-407227,"{19: 1, 66: 1, 6: 2, 8: 6}","[6, 8, 19, 66]",6286191661,K1Dy1C2O6
KHo(CO3)2,mp-9804,4.2739,0.56483406,0.0,icsd-407223,"{19: 1, 67: 1, 6: 2, 8: 6}","[6, 8, 19, 67]",6286191671,K1Ho1C2O6
KEr(CO3)2,mp-1211628,4.4873,0.50383092,0.0,pf-23691,"{19: 1, 68: 1, 6: 2, 8: 6}","[6, 8, 19, 68]",6286191681,K1Er1C2O6
KTm(CO3)2,mp-1211338,4.5095,0.47049655,0.0,pf-34195,"{19: 1, 69: 1, 6: 2, 8: 6}","[6, 8, 19, 69]",6286191691,K1Tm1C2O6
KLu(CO3)2,mp-1211517,4.5532,0.54470512,0.0,pf-13247,"{19: 1, 71: 1, 6: 2, 8: 6}","[6, 8, 19, 71]",6286191711,K1Lu1C2O6
K2Ca(CO3)2,mp-6494,4.353400000000001,0.83264609,0.0,icsd-29442,"{19: 2, 20: 1, 6: 2, 8: 6}","[6, 8, 19, 20]",6286192201,K2Ca1C2O6
K2Cu(CO3)2,mp-542332,0.5492000000000001,0.62299651,0.0,icsd-200695,"{19: 2, 29: 1, 6: 2, 8: 6}","[6, 8, 19, 29]",6286192291,K2Cu1C2O6
K3NaUC3O11,mp-557407,2.1423,-0.46429334,0.0,icsd-76935,"{19: 3, 11: 1, 92: 1, 6: 3, 8: 11}","[6, 8, 11, 19, 92]",63811111193921,K3Na1U1C3O11
K4UC3O11,mp-6194,2.0892,-0.16538717,0.0,icsd-69130,"{19: 4, 92: 1, 6: 3, 8: 11}","[6, 8, 19, 92]",63811194921,K4U1C3O11
K2Pb3C3O9F2,mp-1194624,3.2868999999999997,1.54331047,0.0,icsd-239111,"{19: 2, 82: 3, 6: 3, 8: 9, 9: 2}","[6, 8, 9, 19, 82]",638992192823,K2Pb3C3O9F2
Cs2KCo(CN)6,mp-505662,4.3651,-2.0229972,0.0,icsd-411127,"{55: 2, 19: 1, 27: 1, 6: 6, 7: 6}","[6, 7, 19, 27, 55]",6676191271552,Cs2K1Co1C6N6
KC8,mp-28930,0.0,4.35346854,0.0,icsd-70020,"{19: 1, 6: 8}","[6, 19]",68191,K1C8
K3P6N11,mp-14565,3.9959,2.93208734,0.0,icsd-50211,"{19: 3, 15: 6, 7: 11}","[7, 15, 19]",711156193,K3P6N11
KZr6NCl15,mp-1211782,0.0,2.70408086,0.0,pf-16377,"{19: 1, 40: 6, 7: 1, 17: 15}","[7, 17, 19, 40]",711715191406,K1Zr6N1Cl15
K2RuNCl5O,mp-560966,1.7638,1.17795305,0.0,icsd-2847,"{19: 2, 44: 1, 7: 1, 17: 5, 8: 1}","[7, 8, 17, 19, 44]",7181175192441,K2Ru1N1Cl5O1
KGeNO,mp-6955,2.6817,1.1874323,0.0,icsd-60002,"{19: 1, 32: 1, 7: 1, 8: 1}","[7, 8, 19, 32]",7181191321,K1Ge1N1O1
K2RuBr5NO,mp-560144,1.6301,-0.02180521,0.0,icsd-68669,"{19: 2, 44: 1, 35: 5, 7: 1, 8: 1}","[7, 8, 19, 35, 44]",7181192355441,K2Ru1Br5N1O1
K2RuI5NO,mp-557702,1.3952,1.18219385,0.0,icsd-68670,"{19: 2, 44: 1, 53: 5, 7: 1, 8: 1}","[7, 8, 19, 44, 53]",7181192441535,K2Ru1I5N1O1
KNOF2,mp-647102,3.2687,-2.59613364,0.0,icsd-240891,"{19: 1, 7: 1, 8: 1, 9: 2}","[7, 8, 9, 19]",718192191,K1N1O1F2
KOsNOF5,mp-1105610,0.9869,-1.00391154,0.0,icsd-166586,"{19: 1, 76: 1, 7: 1, 8: 1, 9: 5}","[7, 8, 9, 19, 76]",718195191761,K1Os1N1O1F5
KNO2,mp-29200,2.3232,-0.97822418,0.0,icsd-86117,"{19: 1, 7: 1, 8: 2}","[7, 8, 19]",7182191,K1N1O2
K3ZnNCl4O3,mp-559309,3.3079,-0.78694548,0.0,icsd-280080,"{19: 3, 30: 1, 7: 1, 17: 4, 8: 3}","[7, 8, 17, 19, 30]",7183174193301,K3Zn1N1Cl4O3
KNO3,mp-5158,2.9384,-1.25544897,0.0,icsd-281552,"{19: 1, 7: 1, 8: 3}","[7, 8, 19]",7183191,K1N1O3
K3NO3,mp-28111,0.21740000000000004,1.10328007,0.0,icsd-37204,"{19: 3, 7: 1, 8: 3}","[7, 8, 19]",7183193,K3N1O3
K3NO4,mp-28202,3.6559,0.54460506,0.0,icsd-36632,"{19: 3, 7: 1, 8: 4}","[7, 8, 19]",7184193,K3N1O4
KUCrNO9,mp-1195992,2.1177,-1.02646386,0.0,icsd-423680,"{19: 1, 92: 1, 24: 1, 7: 1, 8: 9}","[7, 8, 19, 24, 92]",7189191241921,K1U1Cr1N1O9
KTaN2,mp-570755,2.6384,1.36861831,0.0,icsd-108798,"{19: 1, 73: 1, 7: 2}","[7, 19, 73]",72191731,K1Ta1N2
K2HgBr2(NO6)2,mp-561222,1.9283000000000001,-0.29655419,0.0,icsd-24405,"{19: 2, 80: 1, 35: 2, 7: 2, 8: 12}","[7, 8, 19, 35, 80]",72812192352801,K2Hg1Br2N2O12
K8UCr4(NO12)2,mp-561037,2.102,-0.66475676,0.0,icsd-98718,"{19: 8, 92: 1, 24: 4, 7: 2, 8: 24}","[7, 8, 19, 24, 92]",72824198244921,K8U1Cr4N2O24
KAg(NO3)2,mp-18429,2.4208,-0.42331275,0.0,icsd-100711,"{19: 1, 47: 1, 7: 2, 8: 6}","[7, 8, 19, 47]",7286191471,K1Ag1N2O6
KN3,mp-827,3.9394,-0.18786629,0.0,icsd-25006,"{19: 1, 7: 3}","[7, 19]",73191,K1N3
KUN3O11,mp-1199439,2.4051,1.13215394,0.0,icsd-422978,"{19: 1, 92: 1, 7: 3, 8: 11}","[7, 8, 19, 92]",73811191921,K1U1N3O11
KNpN3O11,mp-16866,0.09819999999999995,0.71197913,0.0,icsd-95922,"{19: 1, 93: 1, 7: 3, 8: 11}","[7, 8, 19, 93]",73811191931,K1Np1N3O11
K2PtN3(ClO2)3,mp-558532,2.7133,-1.01525058,0.0,icsd-20709,"{19: 2, 78: 1, 7: 3, 17: 3, 8: 6}","[7, 8, 17, 19, 78]",7386173192781,K2Pt1N3Cl3O6
KAu(NO3)4,mp-555085,3.3381,-1.80400238,0.0,icsd-16141,"{19: 1, 79: 1, 7: 4, 8: 12}","[7, 8, 19, 79]",74812191791,K1Au1N4O12
K2Pd(NO3)4,mp-556518,1.9068,-0.88001642,0.0,icsd-201778,"{19: 2, 46: 1, 7: 4, 8: 12}","[7, 8, 19, 46]",74812192461,K2Pd1N4O12
K2Er(NO3)5,mp-558276,3.4458,-1.35877245,0.0,icsd-200298,"{19: 2, 68: 1, 7: 5, 8: 15}","[7, 8, 19, 68]",75815192681,K2Er1N5O15
K3Cu(NO3)5,mp-559099,0.8737999999999999,-0.41031617,0.0,icsd-408583,"{19: 3, 29: 1, 7: 5, 8: 15}","[7, 8, 19, 29]",75815193291,K3Cu1N5O15
K2Ce(NO3)6,mp-558886,1.3666,-0.77473544,0.0,icsd-79689,"{19: 2, 58: 1, 7: 6, 8: 18}","[7, 8, 19, 58]",76818192581,K2Ce1N6O18
K2Th(NO3)6,mp-1212266,3.5914,2.83374214,0.0,pf-29318,"{19: 2, 90: 1, 7: 6, 8: 18}","[7, 8, 19, 90]",76818192901,K2Th1N6O18
KP4N7,mp-505495,3.7455,4.53747859,0.0,icsd-410630,"{19: 1, 15: 4, 7: 7}","[7, 15, 19]",77154191,K1P4N7
K3La2(NO3)9,mp-680063,3.466,2.42924395,0.0,icsd-50754,"{19: 3, 57: 2, 7: 9, 8: 27}","[7, 8, 19, 57]",79827193572,K3La2N9O27
K3Pr2(NO3)9,mp-649608,3.4494000000000002,2.01210291,0.0,icsd-9319,"{19: 3, 59: 2, 7: 9, 8: 27}","[7, 8, 19, 59]",79827193592,K3Pr2N9O27
K3Sm2(NO3)9,mp-1213357,3.5115999999999996,-1.01343049,0.0,pf-2086,"{19: 3, 62: 2, 7: 9, 8: 27}","[7, 8, 19, 62]",79827193622,K3Sm2N9O27
K3Bi2(NO3)9,mp-1199040,3.6628,-0.89705861,0.0,icsd-422618,"{19: 3, 83: 2, 7: 9, 8: 27}","[7, 8, 19, 83]",79827193832,K3Bi2N9O27
K2Na3P3O10,mp-1019781,4.3865,0.53440627,0.0,icsd-262729,"{19: 2, 11: 3, 15: 3, 8: 10}","[8, 11, 15, 19]",810113153192,K2Na3P3O10
K2CoP2WO10,mp-645301,2.6609999999999996,3.67443316,0.0,icsd-163567,"{19: 2, 27: 1, 15: 2, 74: 1, 8: 10}","[8, 15, 19, 27, 74]",810152192271741,K2Co1P2W1O10
K4U(PO5)2,mp-559639,1.7849,0.60249176,0.0,icsd-201006,"{19: 4, 92: 1, 15: 2, 8: 10}","[8, 15, 19, 92]",810152194921,K4U1P2O10
KThP3O10,mp-559645,5.0116,1.17351578,0.0,icsd-23734,"{19: 1, 90: 1, 15: 3, 8: 10}","[8, 15, 19, 90]",810153191901,K1Th1P3O10
K4NpS2ClO10,mp-553977,0.1987000000000001,2.38964904,0.0,icsd-415684,"{19: 4, 93: 1, 16: 2, 17: 1, 8: 10}","[8, 16, 17, 19, 93]",810162171194931,K4Np1S2Cl1O10
K2Mo(SO5)2,mp-558124,2.5828,-0.71017245,0.0,icsd-87569,"{19: 2, 42: 1, 16: 2, 8: 10}","[8, 16, 19, 42]",810162192421,K2Mo1S2O10
K3V(SO5)2,mp-976313,3.1755,-0.62765038,0.0,icsd-180575,"{19: 3, 23: 1, 16: 2, 8: 10}","[8, 16, 19, 23]",810162193231,K3V1S2O10
K2U(MoO5)2,mp-558075,2.2230999999999996,1.6364525,0.0,icsd-64651,"{19: 2, 92: 1, 42: 2, 8: 10}","[8, 19, 42, 92]",810192422921,K2U1Mo2O10
K2Mo3O10,mp-540788,3.3529,-0.68446096,0.0,icsd-24118,"{19: 2, 42: 3, 8: 10}","[8, 19, 42]",810192423,K2Mo3O10
K2U(WO5)2,mp-542317,2.0235,0.71292712,0.0,icsd-96443,"{19: 2, 92: 1, 74: 2, 8: 10}","[8, 19, 74, 92]",810192742921,K2U1W2O10
K3Np(MoO5)2,mp-558722,0.35970000000000013,2.39863967,0.0,icsd-66995,"{19: 3, 93: 1, 42: 2, 8: 10}","[8, 19, 42, 93]",810193422931,K3Np1Mo2O10
K5V3O10,mp-28280,3.0582000000000003,-0.98442605,0.0,icsd-48198,"{19: 5, 23: 3, 8: 10}","[8, 19, 23]",810195233,K5V3O10
K5As3O10,mp-27674,3.057,-0.3996357,0.0,icsd-23302,"{19: 5, 33: 3, 8: 10}","[8, 19, 33]",810195333,K5As3O10
KUP3O11,mp-557505,2.1726,0.33236057,0.0,icsd-419291,"{19: 1, 92: 1, 15: 3, 8: 11}","[8, 15, 19, 92]",811153191921,K1U1P3O11
KUI3O11,mp-554888,1.9515,1.46924004,0.0,icsd-413873,"{19: 1, 92: 1, 53: 3, 8: 11}","[8, 19, 53, 92]",811191533921,K1U1I3O11
K2Mo2Se2O11,mp-1195788,2.787,0.13422272,0.0,icsd-252001,"{19: 2, 42: 2, 34: 2, 8: 11}","[8, 19, 34, 42]",811192342422,K2Mo2Se2O11
K2Sb4O11,mp-27140,1.8585999999999998,1.86403383,0.0,icsd-2061,"{19: 2, 51: 4, 8: 11}","[8, 19, 51]",811192514,K2Sb4O11
K2Ta4O11,mp-1195471,3.3655,1.54376445,0.0,icsd-425506,"{19: 2, 73: 4, 8: 11}","[8, 19, 73]",811192734,K2Ta4O11
K6Ti2S6O,mp-558062,2.4834,0.11895362,0.0,icsd-98734,"{19: 6, 22: 2, 16: 6, 8: 1}","[8, 16, 19, 22]",81166196222,K6Ti2S6O1
K4Cu4Cl10O,mp-561512,0.2946,0.68862736,0.0,icsd-27260,"{19: 4, 29: 4, 17: 10, 8: 1}","[8, 17, 19, 29]",811710194294,K4Cu4Cl10O1
K4Ru2Cl10O,mp-560515,0.3968,0.24410999,0.0,icsd-8054,"{19: 4, 44: 2, 17: 10, 8: 1}","[8, 17, 19, 44]",811710194442,K4Ru2Cl10O1
K2MoCl5O,mp-559914,2.7579,-0.73160827,0.0,icsd-28215,"{19: 2, 42: 1, 17: 5, 8: 1}","[8, 17, 19, 42]",81175192421,K2Mo1Cl5O1
KCuO,mp-7911,1.2429999999999999,1.40905245,0.0,icsd-40158,"{19: 1, 29: 1, 8: 1}","[8, 19, 29]",81191291,K1Cu1O1
KAgO,mp-3074,1.4858,0.02597026,0.0,icsd-25744,"{19: 1, 47: 1, 8: 1}","[8, 19, 47]",81191471,K1Ag1O1
KBa4Sb3O,mp-557761,1.0220000000000002,2.73597499,0.0,icsd-410747,"{19: 1, 56: 4, 51: 3, 8: 1}","[8, 19, 51, 56]",81191513564,K1Ba4Sb3O1
KBa4Bi3O,mp-23571,0.7393000000000001,2.57877098,0.0,icsd-409487,"{19: 1, 56: 4, 83: 3, 8: 1}","[8, 19, 56, 83]",81191564833,K1Ba4Bi3O1
KTlO,mp-27716,1.1638000000000002,2.3170354,0.0,icsd-1570,"{19: 1, 81: 1, 8: 1}","[8, 19, 81]",81191811,K1Tl1O1
K2O,mp-971,1.7072,0.47156282,0.0,icsd-60438,"{19: 2, 8: 1}","[8, 19]",81192,K2O1
K3BrO,mp-28166,0.8913,1.12577295,0.0,icsd-33920,"{19: 3, 35: 1, 8: 1}","[8, 19, 35]",81193351,K3Br1O1
K3IO,mp-28171,1.0284000000000002,1.8514775,0.0,icsd-36512,"{19: 3, 53: 1, 8: 1}","[8, 19, 53]",81193531,K3I1O1
K3AuO,mp-9200,0.5612,0.47419197,0.0,icsd-79086,"{19: 3, 79: 1, 8: 1}","[8, 19, 79]",81193791,K3Au1O1
K4Nb2Se11O,mp-560666,1.1649999999999998,0.99912234,0.0,icsd-85610,"{19: 4, 41: 2, 34: 11, 8: 1}","[8, 19, 34, 41]",811943411412,K4Nb2Se11O1
K4Br2O,mp-28627,0.9912,0.94492535,0.0,icsd-68505,"{19: 4, 35: 2, 8: 1}","[8, 19, 35]",81194352,K4Br2O1
K5Tl3O,mp-555531,0.13490000000000002,2.20691376,0.0,icsd-171625,"{19: 5, 81: 3, 8: 1}","[8, 19, 81]",81195813,K5Tl3O1
K6NbAs3O,mp-561202,1.0121000000000002,1.04629559,0.0,icsd-409630,"{19: 6, 41: 1, 33: 3, 8: 1}","[8, 19, 33, 41]",81196333411,K6Nb1As3O1
KSb2P(SO6)2,mp-1194959,4.109999999999999,1.4661897,0.0,icsd-430367,"{19: 1, 51: 2, 15: 1, 16: 2, 8: 12}","[8, 15, 16, 19, 51]",812151162191512,K1Sb2P1S2O12
KTi2(PO4)3,mp-541238,2.5455,0.78649835,0.0,icsd-67091,"{19: 1, 22: 2, 15: 3, 8: 12}","[8, 15, 19, 22]",812153191222,K1Ti2P3O12
KZn4(PO4)3,mp-560419,3.4541,0.06579001,0.0,icsd-30512,"{19: 1, 30: 4, 15: 3, 8: 12}","[8, 15, 19, 30]",812153191304,K1Zn4P3O12
KZr2(PO4)3,mp-540577,4.013299999999999,0.18095407,0.0,icsd-4427,"{19: 1, 40: 2, 15: 3, 8: 12}","[8, 15, 19, 40]",812153191402,K1Zr2P3O12
KSn4(PO4)3,mp-6755,3.7642999999999995,1.60470503,0.0,icsd-59857,"{19: 1, 50: 4, 15: 3, 8: 12}","[8, 15, 19, 50]",812153191504,K1Sn4P3O12
KTh2(PO4)3,mp-540876,4.599,2.33434514,0.0,icsd-30432,"{19: 1, 90: 2, 15: 3, 8: 12}","[8, 15, 19, 90]",812153191902,K1Th2P3O12
KU2(PO4)3,mp-560812,0.0,3.86034153,0.0,icsd-153498,"{19: 1, 92: 2, 15: 3, 8: 12}","[8, 15, 19, 92]",812153191922,K1U2P3O12
K2ZrFe(PO4)3,mp-1211889,2.6176,1.0759772,0.0,pf-35086,"{19: 2, 40: 1, 26: 1, 15: 3, 8: 12}","[8, 15, 19, 26, 40]",812153192261401,K2Zr1Fe1P3O12
K3Fe2(PO4)3,mp-581237,2.1096999999999997,2.77191771,0.0,icsd-36039,"{19: 3, 26: 2, 15: 3, 8: 12}","[8, 15, 19, 26]",812153193262,K3Fe2P3O12
K3Ga2(PO4)3,mp-6805,3.768,3.60478633,0.0,icsd-241137,"{19: 3, 31: 2, 15: 3, 8: 12}","[8, 15, 19, 31]",812153193312,K3Ga2P3O12
K3Bi2(PO4)3,mp-560420,3.7815999999999996,1.96734327,0.0,icsd-409582,"{19: 3, 83: 2, 15: 3, 8: 12}","[8, 15, 19, 83]",812153193832,K3Bi2P3O12
KGa(PO3)4,mp-555554,4.5523,-0.04784176,0.0,icsd-200610,"{19: 1, 31: 1, 15: 4, 8: 12}","[8, 15, 19, 31]",812154191311,K1Ga1P4O12
KLa(PO3)4,mp-540962,4.8558,1.18704287,0.0,icsd-33241,"{19: 1, 57: 1, 15: 4, 8: 12}","[8, 15, 19, 57]",812154191571,K1La1P4O12
KCe(PO3)4,mp-540753,0.3409000000000004,4.50395729,0.0,icsd-20737,"{19: 1, 58: 1, 15: 4, 8: 12}","[8, 15, 19, 58]",812154191581,K1Ce1P4O12
KPr(PO3)4,mp-1200142,5.422700000000001,0.58233212,0.0,icsd-260823,"{19: 1, 59: 1, 15: 4, 8: 12}","[8, 15, 19, 59]",812154191591,K1Pr1P4O12
KNd(PO3)4,mp-6433,5.3535,0.65319672,0.0,icsd-4254,"{19: 1, 60: 1, 15: 4, 8: 12}","[8, 15, 19, 60]",812154191601,K1Nd1P4O12
KSm(PO3)4,mp-17439,5.2969,0.70526758,0.0,icsd-91761,"{19: 1, 62: 1, 15: 4, 8: 12}","[8, 15, 19, 62]",812154191621,K1Sm1P4O12
KGd(PO3)4,mp-559799,3.2486,0.56493752,0.0,icsd-59836,"{19: 1, 64: 1, 15: 4, 8: 12}","[8, 15, 19, 64]",812154191641,K1Gd1P4O12
KBi(PO3)4,mp-559020,4.8281,1.1173164,0.0,icsd-96263,"{19: 1, 83: 1, 15: 4, 8: 12}","[8, 15, 19, 83]",812154191831,K1Bi1P4O12
K2Cu(PO3)4,mp-6598,1.0802999999999998,0.75198198,0.0,icsd-23754,"{19: 2, 29: 1, 15: 4, 8: 12}","[8, 15, 19, 29]",812154192291,K2Cu1P4O12
K2Sr(PO3)4,mp-558990,5.6094,-0.27345956,0.0,icsd-166488,"{19: 2, 38: 1, 15: 4, 8: 12}","[8, 15, 19, 38]",812154192381,K2Sr1P4O12
K2P4PbO12,mp-667288,5.0568,0.76800296,0.0,icsd-856,"{19: 2, 15: 4, 82: 1, 8: 12}","[8, 15, 19, 82]",812154192821,K2P4Pb1O12