formula,material_id,band_gap,efermi,energy_above_hull,database_IDs,comp_atoms,sorted_keys_comp_atoms,comp_number,new_formula
KEuAsS4,mp-867419,0.0,3.13612365,0.0,icsd-420736,"{19: 1, 63: 1, 33: 1, 16: 4}","[16, 19, 33, 63]",164191331631,K1Eu1As1S4
KBaNbS4,mp-16780,2.0731,1.1522897,0.0,icsd-415335,"{19: 1, 56: 1, 41: 1, 16: 4}","[16, 19, 41, 56]",164191411561,K1Ba1Nb1S4
KSnS4,mp-541379,1.4139,2.32322198,0.0,icsd-73004,"{19: 1, 50: 1, 16: 4}","[16, 19, 50]",164191501,K1Sn1S4
K2Ti(CuS2)2,mp-1211474,1.6735000000000002,2.77683465,0.0,pf-6335,"{19: 2, 22: 1, 29: 2, 16: 4}","[16, 19, 22, 29]",164192221292,K2Ti1Cu2S4
K2VCuS4,mp-15147,1.2343,1.69183789,0.0,icsd-81414,"{19: 2, 23: 1, 29: 1, 16: 4}","[16, 19, 23, 29]",164192231291,K2V1Cu1S4
K2VAgS4,mp-8900,1.3049999999999997,1.06052535,0.0,icsd-66840,"{19: 2, 23: 1, 47: 1, 16: 4}","[16, 19, 23, 47]",164192231471,K2V1Ag1S4
K2NbCuS4,mp-9763,1.9582,1.35108844,0.0,icsd-402422,"{19: 2, 41: 1, 29: 1, 16: 4}","[16, 19, 29, 41]",164192291411,K2Nb1Cu1S4
K2Ce(CuS2)2,mp-1206020,0.5588999999999995,3.87394972,0.0,pf-2320,"{19: 2, 58: 1, 29: 2, 16: 4}","[16, 19, 29, 58]",164192292581,K2Ce1Cu2S4
K2Ag2GeS4,mp-558500,1.6880000000000002,1.51527762,0.0,icsd-170843,"{19: 2, 47: 2, 32: 1, 16: 4}","[16, 19, 32, 47]",164192321472,K2Ag2Ge1S4
K2AsAuS4,mp-9511,0.9987999999999999,1.08368221,0.0,icsd-85681,"{19: 2, 33: 1, 79: 1, 16: 4}","[16, 19, 33, 79]",164192331791,K2As1Au1S4
K2ZrS4,mp-560331,1.8944,1.50371108,0.0,icsd-152138,"{19: 2, 40: 1, 16: 4}","[16, 19, 40]",164192401,K2Zr1S4
K2NbAgS4,mp-15214,2.1290999999999998,0.80036581,0.0,icsd-84292,"{19: 2, 41: 1, 47: 1, 16: 4}","[16, 19, 41, 47]",164192411471,K2Nb1Ag1S4
K2MoS4,mp-17980,1.4127999999999998,0.72115424,0.0,icsd-641254,"{19: 2, 42: 1, 16: 4}","[16, 19, 42]",164192421,K2Mo1S4
K2Pd3S4,mp-9910,0.5108999999999999,0.71756086,0.0,icsd-41885,"{19: 2, 46: 3, 16: 4}","[16, 19, 46]",164192463,K2Pd3S4
K2TaAgS4,mp-15216,2.4916,0.76323967,0.0,icsd-84294,"{19: 2, 73: 1, 47: 1, 16: 4}","[16, 19, 47, 73]",164192471731,K2Ta1Ag1S4
K2CdSnS4,mp-1194826,1.4957,1.20594157,0.0,icsd-424763,"{19: 2, 48: 1, 50: 1, 16: 4}","[16, 19, 48, 50]",164192481501,K2Cd1Sn1S4
K2Cd(AuS)4,mp-557832,2.0328999999999997,1.55380255,0.0,icsd-85583,"{19: 2, 48: 1, 79: 4, 16: 4}","[16, 19, 48, 79]",164192481794,K2Cd1Au4S4
K2Cd3S4,mp-18101,1.7875999999999999,0.67046953,0.0,icsd-81655,"{19: 2, 48: 3, 16: 4}","[16, 19, 48]",164192483,K2Cd3S4
K2Sn(AuS2)2,mp-557121,1.6433,1.48876854,0.0,icsd-74022,"{19: 2, 50: 1, 79: 2, 16: 4}","[16, 19, 50, 79]",164192501792,K2Sn1Au2S4
K2WS4,mp-1211879,1.9435000000000002,2.23215828,0.0,pf-25941,"{19: 2, 74: 1, 16: 4}","[16, 19, 74]",164192741,K2W1S4
K2Hg3S4,mp-1211986,1.7842000000000002,0.99164762,0.0,pf-40316,"{19: 2, 80: 3, 16: 4}","[16, 19, 80]",164192803,K2Hg3S4
K3VS4,mp-3529,1.5829999999999997,0.52712071,0.0,icsd-81413,"{19: 3, 23: 1, 16: 4}","[16, 19, 23]",164193231,K3V1S4
K3NbS4,mp-18383,2.3437,0.25256487,0.0,icsd-73326,"{19: 3, 41: 1, 16: 4}","[16, 19, 41]",164193411,K3Nb1S4
K3SbS4,mp-9781,2.1851,0.74054899,0.0,icsd-402642,"{19: 3, 51: 1, 16: 4}","[16, 19, 51]",164193511,K3Sb1S4
K3TaS4,mp-18148,2.7558000000000002,0.31071728,0.0,icsd-59355,"{19: 3, 73: 1, 16: 4}","[16, 19, 73]",164193731,K3Ta1S4
K4GeS4,mp-556627,2.7133,0.17564683,0.0,icsd-418257,"{19: 4, 32: 1, 16: 4}","[16, 19, 32]",164194321,K4Ge1S4
K6MnS4,mp-18244,1.2969,1.22392296,0.0,icsd-65448,"{19: 6, 25: 1, 16: 4}","[16, 19, 25]",164196251,K6Mn1S4
K6HgS4,mp-5114,1.7161,0.24865348,0.0,icsd-266,"{19: 6, 80: 1, 16: 4}","[16, 19, 80]",164196801,K6Hg1S4
KCaEr2CuS5,mp-1211692,1.3723000000000005,4.62493624,0.0,pf-17477,"{19: 1, 20: 1, 68: 2, 29: 1, 16: 5}","[16, 19, 20, 29, 68]",165191201291682,K1Ca1Er2Cu1S5
KCr3S5,mp-1189266,0.49260000000000037,4.76931708,0.0,icsd-604340,"{19: 1, 24: 3, 16: 5}","[16, 19, 24]",165191243,K1Cr3S5
KSnAsS5,mp-554119,1.7082,1.93809067,0.0,icsd-281038,"{19: 1, 50: 1, 33: 1, 16: 5}","[16, 19, 33, 50]",165191331501,K1Sn1As1S5
KAg3As2S5,mp-561304,1.6896999999999998,2.19061305,0.0,icsd-82638,"{19: 1, 47: 3, 33: 2, 16: 5}","[16, 19, 33, 47]",165191332473,K1Ag3As2S5
KTaS5,mp-31308,1.3518,2.62902507,0.0,icsd-414535,"{19: 1, 73: 1, 16: 5}","[16, 19, 73]",165191731,K1Ta1S5
KAuS5,mp-3592,1.7779,1.55561989,0.0,icsd-402875,"{19: 1, 79: 1, 16: 5}","[16, 19, 79]",165191791,K1Au1S5
K2S5,mp-17146,1.9298999999999997,1.3597609,0.0,icsd-641320,"{19: 2, 16: 5}","[16, 19]",165192,K2S5
K2Ge2S5,mp-541878,2.2390999999999996,0.45054922,0.0,icsd-411027,"{19: 2, 32: 2, 16: 5}","[16, 19, 32]",165192322,K2Ge2S5
K2Sn2S5,mp-8965,1.4062999999999999,2.14248176,0.0,icsd-72378,"{19: 2, 50: 2, 16: 5}","[16, 19, 50]",165192502,K2Sn2S5
K4Au6S5,mp-29341,1.5841999999999998,1.04919167,0.0,icsd-202552,"{19: 4, 79: 6, 16: 5}","[16, 19, 79]",165194796,K4Au6S5
KEu2CuS6,mp-680171,0.0,2.72049208,0.0,icsd-405838,"{19: 1, 63: 2, 29: 1, 16: 6}","[16, 19, 29, 63]",166191291632,K1Eu2Cu1S6
K2Ge2PbS6,mp-561132,2.2112999999999996,1.60342146,0.0,icsd-170601,"{19: 2, 32: 2, 82: 1, 16: 6}","[16, 19, 32, 82]",166192322821,K2Ge2Pb1S6
K2Sn(AsS3)2,mp-10776,1.0089000000000001,2.09411868,0.0,icsd-281039,"{19: 2, 50: 1, 33: 2, 16: 6}","[16, 19, 33, 50]",166192332501,K2Sn1As2S6
K2(TcS2)3,mp-541353,1.032,3.55244949,0.0,icsd-72537,"{19: 2, 43: 3, 16: 6}","[16, 19, 43]",166192433,K2Tc3S6
K2U(PdS2)3,mp-1192306,0.0,3.4783994,0.0,icsd-262563,"{19: 2, 92: 1, 46: 3, 16: 6}","[16, 19, 46, 92]",166192463921,K2U1Pd3S6
K2(ReS2)3,mp-541638,1.4695999999999998,4.817138,0.0,icsd-200836,"{19: 2, 75: 3, 16: 6}","[16, 19, 75]",166192753,K2Re3S6
K4H6C2O9,mp-542043,3.8796,-0.25809288,0.0,icsd-22257,"{19: 4, 1: 6, 6: 2, 8: 9}","[1, 6, 8, 19]",166289194,K4H6C2O9
K2Hg6S7,mp-1211969,1.3918000000000001,2.38361432,0.0,pf-29911,"{19: 2, 80: 6, 16: 7}","[16, 19, 80]",167192806,K2Hg6S7
K9Fe2S7,mp-14889,0.5147999999999999,1.46630891,0.0,icsd-73053,"{19: 9, 26: 2, 16: 7}","[16, 19, 26]",167199262,K9Fe2S7
K2Na(H2N)3,mp-866641,2.11,-0.22838902,0.0,icsd-414253,"{19: 2, 11: 1, 1: 6, 7: 3}","[1, 7, 11, 19]",1673111192,K2Na1H6N3
KCa(H2N)3,mp-720856,2.1993,0.1383598,0.0,icsd-1359,"{19: 1, 20: 1, 1: 6, 7: 3}","[1, 7, 19, 20]",1673191201,K1Ca1H6N3
CsKTeH6SO10,mp-559375,3.1915,-0.27288643,0.0,icsd-245146,"{55: 1, 19: 1, 52: 1, 1: 6, 16: 1, 8: 10}","[1, 8, 16, 19, 52, 55]",16810161191521551,Cs1K1Te1H6S1O10
K2TeH6SO10,mp-1211923,3.4090000000000003,2.96212209,0.0,pf-6336,"{19: 2, 52: 1, 1: 6, 16: 1, 8: 10}","[1, 8, 16, 19, 52]",16810161192521,K2Te1H6S1O10
K2TeH6SeO10,mp-723043,3.4641,-0.85637405,0.0,icsd-154512,"{19: 2, 52: 1, 1: 6, 34: 1, 8: 10}","[1, 8, 19, 34, 52]",16810192341521,K2Te1H6Se1O10
KCr3H6(SO7)2,mp-24009,2.2228,1.03700177,0.0,icsd-75977,"{19: 1, 24: 3, 1: 6, 16: 2, 8: 14}","[1, 8, 16, 19, 24]",16814162191243,K1Cr3H6S2O14
KCr5S8,mp-12178,0.23659999999999926,4.71712664,0.0,icsd-2568,"{19: 1, 24: 5, 16: 8}","[16, 19, 24]",168191245,K1Cr5S8
KSb5S8,mp-15559,1.3375,5.03855784,0.0,icsd-410178,"{19: 1, 51: 5, 16: 8}","[16, 19, 51]",168191515,K1Sb5S8
K2Hg3(GeS4)2,mp-17792,1.5520999999999998,1.00018386,0.0,icsd-281504,"{19: 2, 80: 3, 32: 2, 16: 8}","[16, 19, 32, 80]",168192322803,K2Hg3Ge2S8
K2Sn2Hg3S8,mp-18115,1.4179,1.28239878,0.0,icsd-281505,"{19: 2, 50: 2, 80: 3, 16: 8}","[16, 19, 50, 80]",168192502803,K2Sn2Hg3S8
K3Nb2Cu3S8,mp-581419,1.8542,1.78053542,0.0,icsd-67697,"{19: 3, 41: 2, 29: 3, 16: 8}","[16, 19, 29, 41]",168193293412,K3Nb2Cu3S8
K3Ta2Cu3S8,mp-1197797,2.313,3.92236992,0.0,icsd-657395,"{19: 3, 73: 2, 29: 3, 16: 8}","[16, 19, 29, 73]",168193293732,K3Ta2Cu3S8
K3Nd(AsS4)2,mp-559059,1.6896,1.00638468,0.0,icsd-240365,"{19: 3, 60: 1, 33: 2, 16: 8}","[16, 19, 33, 60]",168193332601,K3Nd1As2S8
K3Sm(AsS4)2,mp-560964,1.6795000000000002,1.13461522,0.0,icsd-240366,"{19: 3, 62: 1, 33: 2, 16: 8}","[16, 19, 33, 62]",168193332621,K3Sm1As2S8
K3Dy(AsS4)2,mp-866661,1.3716,1.1928202,0.0,icsd-420737,"{19: 3, 66: 1, 33: 2, 16: 8}","[16, 19, 33, 66]",168193332661,K3Dy1As2S8
K3Nb2Ag3S8,mp-581115,2.0457,0.83518674,0.0,icsd-412478,"{19: 3, 41: 2, 47: 3, 16: 8}","[16, 19, 41, 47]",168193412473,K3Nb2Ag3S8
K3Ta2Ag3S8,mp-573202,2.1971999999999996,0.81358631,0.0,icsd-412476,"{19: 3, 73: 2, 47: 3, 16: 8}","[16, 19, 47, 73]",168193473732,K3Ta2Ag3S8
K4Ba(VS4)2,mp-558121,1.5514000000000001,0.950118,0.0,icsd-240378,"{19: 4, 56: 1, 23: 2, 16: 8}","[16, 19, 23, 56]",168194232561,K4Ba1V2S8
K2Sn(HO)6,mp-510002,3.6828,-0.0573004,0.0,icsd-92465,"{19: 2, 50: 1, 1: 6, 8: 6}","[1, 8, 19, 50]",1686192501,K2Sn1H6O6
K2H6PbO6,mp-643801,2.1354,-0.2656308,0.0,icsd-92466,"{19: 2, 1: 6, 82: 1, 8: 6}","[1, 8, 19, 82]",1686192821,K2H6Pb1O6
K3Np(H3O4)2,mp-1194761,1.543,-0.00686998,0.0,icsd-427266,"{19: 3, 93: 1, 1: 6, 8: 8}","[1, 8, 19, 93]",1688193931,K3Np1H6O8
K3Pu(H3O4)2,mp-1237009,1.1730999999999998,0.69093914,0.0,icsd-161583,"{19: 3, 94: 1, 1: 6, 8: 8}","[1, 8, 19, 94]",1688193941,K3Pu1H6O8
K2Dy4Cu4S9,mp-1105938,0.8801999999999999,4.6376356,0.0,icsd-97562,"{19: 2, 66: 4, 29: 4, 16: 9}","[16, 19, 29, 66]",169192294664,K2Dy4Cu4S9
K2Ho4Cu4S9,mp-1172870,0.8687000000000005,3.93423175,0.0,icsd-97563,"{19: 2, 67: 4, 29: 4, 16: 9}","[16, 19, 29, 67]",169192294674,K2Ho4Cu4S9
KTi4Cl11,mp-1203502,0.005700000000000038,3.18555016,0.0,icsd-165276,"{19: 1, 22: 4, 17: 11}","[17, 19, 22]",1711191224,K1Ti4Cl11
KNb2Cl11,mp-1192824,2.1197,-1.22421733,0.0,icsd-420871,"{19: 1, 41: 2, 17: 11}","[17, 19, 41]",1711191412,K1Nb2Cl11
KHg5Cl11,mp-1211367,2.6479,1.40543191,0.0,pf-14973,"{19: 1, 80: 5, 17: 11}","[17, 19, 80]",1711191805,K1Hg5Cl11
KCl,mp-23193,5.027,-2.00265889,0.0,icsd-240521,"{19: 1, 17: 1}","[17, 19]",171191,K1Cl1
K6InTe4Cl,mp-568916,1.9503000000000001,1.08361718,0.0,icsd-79543,"{19: 6, 49: 1, 52: 4, 17: 1}","[17, 19, 49, 52]",171196491524,K6In1Te4Cl1
KZr6MnCl14,mp-1212009,1.2413000000000003,3.629024,0.0,pf-11121,"{19: 1, 40: 6, 25: 1, 17: 14}","[17, 19, 25, 40]",1714191251406,K1Zr6Mn1Cl14
K2Zr7Cl18,mp-27585,0.0,2.96008044,0.0,icsd-15278,"{19: 2, 40: 7, 17: 18}","[17, 19, 40]",1718192407,K2Zr7Cl18
KICl2,mp-628908,2.094,-0.44290842,0.0,icsd-2637,"{19: 1, 53: 1, 17: 2}","[17, 19, 53]",172191531,K1I1Cl2
KCaCl3,mp-1211643,5.5615,4.37347647,0.0,pf-23570,"{19: 1, 20: 1, 17: 3}","[17, 19, 20]",173191201,K1Ca1Cl3
KVCl3,mp-1205604,0.33420000000000005,3.3818892,0.0,pf-17858,"{19: 1, 23: 1, 17: 3}","[17, 19, 23]",173191231,K1V1Cl3
KMnCl3,mp-567530,0.0,2.25269396,0.0,icsd-173944,"{19: 1, 25: 1, 17: 3}","[17, 19, 25]",173191251,K1Mn1Cl3
KCuCl3,mp-27450,0.26819999999999994,0.52616397,0.0,icsd-252663,"{19: 1, 29: 1, 17: 3}","[17, 19, 29]",173191291,K1Cu1Cl3
KCdCl3,mp-23442,3.5095,-0.73799578,0.0,icsd-33281,"{19: 1, 48: 1, 17: 3}","[17, 19, 48]",173191481,K1Cd1Cl3
K2CuCl3,mp-569952,2.0520000000000005,1.50299184,0.0,icsd-150292,"{19: 2, 29: 1, 17: 3}","[17, 19, 29]",173192291,K2Cu1Cl3
KFeCl4,mp-28435,0.16410000000000002,-0.37608526,0.0,icsd-63469,"{19: 1, 26: 1, 17: 4}","[17, 19, 26]",174191261,K1Fe1Cl4
KGaCl4,mp-30219,4.3705,-1.88848878,0.0,icsd-281297,"{19: 1, 31: 1, 17: 4}","[17, 19, 31]",174191311,K1Ga1Cl4
KICl4,mp-647366,1.9531,-1.23137558,0.0,icsd-30203,"{19: 1, 53: 1, 17: 4}","[17, 19, 53]",174191531,K1I1Cl4
KAuCl4,mp-27181,1.4257,-1.02682194,0.0,icsd-2607,"{19: 1, 79: 1, 17: 4}","[17, 19, 79]",174191791,K1Au1Cl4
KTlCl4,mp-27385,2.3241,-1.24755175,0.0,icsd-14105,"{19: 1, 81: 1, 17: 4}","[17, 19, 81]",174191811,K1Tl1Cl4
K2CoCl4,mp-23515,0.7173,0.43934196,0.0,icsd-71303,"{19: 2, 27: 1, 17: 4}","[17, 19, 27]",174192271,K2Co1Cl4
K2ZnCl4,mp-653633,4.546799999999999,-1.56627507,0.0,icsd-66515,"{19: 2, 30: 1, 17: 4}","[17, 19, 30]",174192301,K2Zn1Cl4
K2PdCl4,mp-22956,1.4279000000000002,-0.4736166,0.0,icsd-27522,"{19: 2, 46: 1, 17: 4}","[17, 19, 46]",174192461,K2Pd1Cl4
K2PtCl4,mp-22934,1.8196,0.07500094,0.0,icsd-37015,"{19: 2, 78: 1, 17: 4}","[17, 19, 78]",174192781,K2Pt1Cl4
K2HgCl4,mp-725973,2.3613,-0.94552429,0.0,icsd-20569,"{19: 2, 80: 1, 17: 4}","[17, 19, 80]",174192801,K2Hg1Cl4
KSr2Cl5,mp-1211382,5.2608999999999995,-0.45247623,0.0,pf-16688,"{19: 1, 38: 2, 17: 5}","[17, 19, 38]",175191382,K1Sr2Cl5
KSn2Cl5,mp-23539,3.0071,1.13247858,0.0,icsd-152002,"{19: 1, 50: 2, 17: 5}","[17, 19, 50]",175191502,K1Sn2Cl5
KPb2Cl5,mp-607267,3.6136999999999997,1.19948949,0.0,icsd-184282,"{19: 1, 82: 2, 17: 5}","[17, 19, 82]",175191822,K1Pb2Cl5
K2YCl5,mp-1211533,4.783200000000001,4.15831072,0.0,pf-19685,"{19: 2, 39: 1, 17: 5}","[17, 19, 39]",175192391,K2Y1Cl5
K2SbCl5,mp-27241,3.2507,-0.05117369,0.0,icsd-6059,"{19: 2, 51: 1, 17: 5}","[17, 19, 51]",175192511,K2Sb1Cl5
K2LaCl5,mp-1201545,4.1634,4.06290474,0.0,icsd-261119,"{19: 2, 57: 1, 17: 5}","[17, 19, 57]",175192571,K2La1Cl5
K2CeCl5,mp-1212138,0.3104,2.67784452,0.0,pf-25198,"{19: 2, 58: 1, 17: 5}","[17, 19, 58]",175192581,K2Ce1Cl5
K2PrCl5,mp-569967,4.815300000000001,-0.74891611,0.0,icsd-48190,"{19: 2, 59: 1, 17: 5}","[17, 19, 59]",175192591,K2Pr1Cl5
K2NdCl5,mp-1211903,4.7465,3.95738679,0.0,pf-35687,"{19: 2, 60: 1, 17: 5}","[17, 19, 60]",175192601,K2Nd1Cl5
K2SmCl5,mp-1211774,4.779999999999999,-0.80289138,0.0,pf-4239,"{19: 2, 62: 1, 17: 5}","[17, 19, 62]",175192621,K2Sm1Cl5
K2EuCl5,mp-1212510,0.0,-0.83857851,0.0,pf-14734,"{19: 2, 63: 1, 17: 5}","[17, 19, 63]",175192631,K2Eu1Cl5
K2GdCl5,mp-1212034,2.5725000000000002,1.76112116,0.0,pf-34348,"{19: 2, 64: 1, 17: 5}","[17, 19, 64]",175192641,K2Gd1Cl5
K2TbCl5,mp-1211737,4.9948,4.33837568,0.0,pf-2884,"{19: 2, 65: 1, 17: 5}","[17, 19, 65]",175192651,K2Tb1Cl5
K2DyCl5,mp-1212062,4.9233,4.2431658,0.0,pf-13402,"{19: 2, 66: 1, 17: 5}","[17, 19, 66]",175192661,K2Dy1Cl5
K2HoCl5,mp-1212046,4.9925999999999995,4.33565629,0.0,pf-30957,"{19: 2, 67: 1, 17: 5}","[17, 19, 67]",175192671,K2Ho1Cl5
K2UCl5,mp-28496,0.1198999999999999,3.84999299,0.0,icsd-41551,"{19: 2, 92: 1, 17: 5}","[17, 19, 92]",175192921,K2U1Cl5
K2PuCl5,mp-29334,0.07550000000000034,2.27994995,0.0,icsd-202525,"{19: 2, 94: 1, 17: 5}","[17, 19, 94]",175192941,K2Pu1Cl5
Cs2KScCl6,mp-571124,3.7113,-0.77988717,0.0,icsd-59196,"{55: 2, 19: 1, 21: 1, 17: 6}","[17, 19, 21, 55]",176191211552,Cs2K1Sc1Cl6
Cs2KCrCl6,mp-1205683,1.5534999999999999,0.227835,0.0,pf-6256,"{55: 2, 19: 1, 24: 1, 17: 6}","[17, 19, 24, 55]",176191241552,Cs2K1Cr1Cl6
Cs2KYCl6,mp-1112690,5.1935,-1.40004505,0.0,pf-766,"{55: 2, 19: 1, 39: 1, 17: 6}","[17, 19, 39, 55]",176191391552,Cs2K1Y1Cl6
Cs2KInCl6,mp-1112759,3.5784,-0.8616695,0.0,pf-32190,"{55: 2, 19: 1, 49: 1, 17: 6}","[17, 19, 49, 55]",176191491552,Cs2K1In1Cl6
KSbCl6,mp-1211377,2.0845000000000002,1.37117232,0.0,pf-12749,"{19: 1, 51: 1, 17: 6}","[17, 19, 51]",176191511,K1Sb1Cl6
Cs2KSmCl6,mp-1079871,5.0573,-1.40693643,0.0,icsd-166519,"{55: 2, 19: 1, 62: 1, 17: 6}","[17, 19, 55, 62]",176191552621,Cs2K1Sm1Cl6
Cs2KGdCl6,mp-1113049,3.2188,-1.47475094,0.0,pf-41400,"{55: 2, 19: 1, 64: 1, 17: 6}","[17, 19, 55, 64]",176191552641,Cs2K1Gd1Cl6
Cs2KTbCl6,mp-580631,5.0878,-1.32523276,0.0,icsd-84844,"{55: 2, 19: 1, 65: 1, 17: 6}","[17, 19, 55, 65]",176191552651,Cs2K1Tb1Cl6
Cs2KDyCl6,mp-1112785,5.1988,-1.4005285,0.0,pf-20463,"{55: 2, 19: 1, 66: 1, 17: 6}","[17, 19, 55, 66]",176191552661,Cs2K1Dy1Cl6
Cs2KHoCl6,mp-1207104,5.2294,-1.37150583,0.0,pf-9957,"{55: 2, 19: 1, 67: 1, 17: 6}","[17, 19, 55, 67]",176191552671,Cs2K1Ho1Cl6
Cs2KErCl6,mp-1113058,5.2229,-1.3739426,0.0,pf-41306,"{55: 2, 19: 1, 68: 1, 17: 6}","[17, 19, 55, 68]",176191552681,Cs2K1Er1Cl6
Cs2KTmCl6,mp-1112689,5.2319,-1.35122935,0.0,pf-21828,"{55: 2, 19: 1, 69: 1, 17: 6}","[17, 19, 55, 69]",176191552691,Cs2K1Tm1Cl6
KTaCl6,mp-1211251,2.8634,-1.19591475,0.0,pf-22007,"{19: 1, 73: 1, 17: 6}","[17, 19, 73]",176191731,K1Ta1Cl6
KWCl6,mp-1211264,0.0,1.12194686,0.0,pf-14253,"{19: 1, 74: 1, 17: 6}","[17, 19, 74]",176191741,K1W1Cl6
K2TiCl6,mp-27839,2.0826000000000002,-0.49022007,0.0,icsd-26934,"{19: 2, 22: 1, 17: 6}","[17, 19, 22]",176192221,K2Ti1Cl6
K2VCl6,mp-1206608,0.0,0.63016145,0.0,pf-6163,"{19: 2, 23: 1, 17: 6}","[17, 19, 23]",176192231,K2V1Cl6
K2MnCl6,mp-27304,1.0996000000000001,-0.3952274,0.0,icsd-9679,"{19: 2, 25: 1, 17: 6}","[17, 19, 25]",176192251,K2Mn1Cl6
K2NbCl6,mp-568405,0.0,1.48694216,0.0,icsd-245749,"{19: 2, 41: 1, 17: 6}","[17, 19, 41]",176192411,K2Nb1Cl6
K2MoCl6,mp-27826,0.0,1.01710639,0.0,icsd-26643,"{19: 2, 42: 1, 17: 6}","[17, 19, 42]",176192421,K2Mo1Cl6
K2TcCl6,mp-27632,1.1425999999999998,0.21847134,0.0,icsd-22096,"{19: 2, 43: 1, 17: 6}","[17, 19, 43]",176192431,K2Tc1Cl6
K2RuCl6,mp-23471,0.0,0.68628848,0.0,icsd-76275,"{19: 2, 44: 1, 17: 6}","[17, 19, 44]",176192441,K2Ru1Cl6
K2PdCl6,mp-23067,1.2027,-0.55714191,0.0,icsd-65039,"{19: 2, 46: 1, 17: 6}","[17, 19, 46]",176192461,K2Pd1Cl6
K2SnCl6,mp-571453,2.844,-0.65972483,0.0,icsd-1670,"{19: 2, 50: 1, 17: 6}","[17, 19, 50]",176192501,K2Sn1Cl6
K2TeCl6,mp-569149,2.5557,0.29593751,0.0,icsd-26127,"{19: 2, 52: 1, 17: 6}","[17, 19, 52]",176192521,K2Te1Cl6
CsK2BiCl6,mp-571371,3.9160000000000004,-0.4654528,0.0,icsd-201983,"{55: 1, 19: 2, 83: 1, 17: 6}","[17, 19, 55, 83]",176192551831,Cs1K2Bi1Cl6
K2WCl6,mp-568914,0.0,1.61302037,0.0,icsd-409840,"{19: 2, 74: 1, 17: 6}","[17, 19, 74]",176192741,K2W1Cl6
K2ReCl6,mp-22947,1.0776,0.82268248,0.0,icsd-68763,"{19: 2, 75: 1, 17: 6}","[17, 19, 75]",176192751,K2Re1Cl6
K2OsCl6,mp-23533,0.0,1.13695338,0.0,icsd-26769,"{19: 2, 76: 1, 17: 6}","[17, 19, 76]",176192761,K2Os1Cl6
K2PtCl6,mp-23513,1.8566,-0.28395751,0.0,icsd-280460,"{19: 2, 78: 1, 17: 6}","[17, 19, 78]",176192781,K2Pt1Cl6
K2PbCl6,mp-1211440,1.6065,-1.01233193,0.0,pf-40788,"{19: 2, 82: 1, 17: 6}","[17, 19, 82]",176192821,K2Pb1Cl6
K2PuCl6,mp-505397,0.3467000000000001,0.94642722,0.0,icsd-202526,"{19: 2, 94: 1, 17: 6}","[17, 19, 94]",176192941,K2Pu1Cl6
K3ScCl6,mp-1196072,3.9539,2.87865261,0.0,icsd-169889,"{19: 3, 21: 1, 17: 6}","[17, 19, 21]",176193211,K3Sc1Cl6
K3TiCl6,mp-1205449,0.061699999999999644,2.10685887,0.0,icsd-411051,"{19: 3, 22: 1, 17: 6}","[17, 19, 22]",176193221,K3Ti1Cl6
K3MoCl6,mp-27643,1.6431,1.18276516,0.0,icsd-22134,"{19: 3, 42: 1, 17: 6}","[17, 19, 42]",176193421,K3Mo1Cl6
K3RhCl6,mp-28837,1.7025,0.24754042,0.0,icsd-73586,"{19: 3, 45: 1, 17: 6}","[17, 19, 45]",176193451,K3Rh1Cl6
K3InCl6,mp-569132,3.4596,-0.7191193,0.0,icsd-172564,"{19: 3, 49: 1, 17: 6}","[17, 19, 49]",176193491,K3In1Cl6
K3HoCl6,mp-1211924,5.0202,3.72637361,0.0,pf-27804,"{19: 3, 67: 1, 17: 6}","[17, 19, 67]",176193671,K3Ho1Cl6
K3ErCl6,mp-30197,5.196899999999999,-1.40235061,0.0,icsd-94453,"{19: 3, 68: 1, 17: 6}","[17, 19, 68]",176193681,K3Er1Cl6
K3TmCl6,mp-1211949,5.0684,3.84438095,0.0,pf-22223,"{19: 3, 69: 1, 17: 6}","[17, 19, 69]",176193691,K3Tm1Cl6
K3IrCl6,mp-541141,1.9930000000000003,0.88266018,0.0,icsd-63454,"{19: 3, 77: 1, 17: 6}","[17, 19, 77]",176193771,K3Ir1Cl6
K4CdCl6,mp-23392,3.9829999999999997,-1.27783973,0.0,icsd-25604,"{19: 4, 48: 1, 17: 6}","[17, 19, 48]",176194481,K4Cd1Cl6
KY2Cl7,mp-1211540,4.5404,-0.83490613,0.0,pf-7748,"{19: 1, 39: 2, 17: 7}","[17, 19, 39]",177191392,K1Y2Cl7
KSm2Cl7,mp-1211516,4.5743,-1.03703501,0.0,pf-39150,"{19: 1, 62: 2, 17: 7}","[17, 19, 62]",177191622,K1Sm2Cl7
KEu2Cl7,mp-1211760,0.0,-1.02064531,0.0,pf-37849,"{19: 1, 63: 2, 17: 7}","[17, 19, 63]",177191632,K1Eu2Cl7
KGd2Cl7,mp-1211663,2.5883000000000003,1.66468554,0.0,pf-6468,"{19: 1, 64: 2, 17: 7}","[17, 19, 64]",177191642,K1Gd2Cl7
KTb2Cl7,mp-1211526,4.6587000000000005,-0.85395056,0.0,pf-16922,"{19: 1, 65: 2, 17: 7}","[17, 19, 65]",177191652,K1Tb2Cl7
KDy2Cl7,mp-540942,4.5535,-0.72236125,0.0,icsd-37007,"{19: 1, 66: 2, 17: 7}","[17, 19, 66]",177191662,K1Dy2Cl7
KHo2Cl7,mp-1211594,4.7006,-0.68876493,0.0,pf-37918,"{19: 1, 67: 2, 17: 7}","[17, 19, 67]",177191672,K1Ho2Cl7
KEr2Cl7,mp-1211690,4.7226,-0.77822288,0.0,pf-15576,"{19: 1, 68: 2, 17: 7}","[17, 19, 68]",177191682,K1Er2Cl7
KTm2Cl7,mp-1211484,4.7734,-0.62811862,0.0,pf-26146,"{19: 1, 69: 2, 17: 7}","[17, 19, 69]",177191692,K1Tm2Cl7
K2(NbCl3)3,mp-28501,1.0867999999999998,1.74187649,0.0,icsd-41118,"{19: 2, 41: 3, 17: 9}","[17, 19, 41]",179192413,K2Nb3Cl9
K2Ta3Cl9,mp-31360,1.4543000000000004,2.20238669,0.0,icsd-59851,"{19: 2, 73: 3, 17: 9}","[17, 19, 73]",179192733,K2Ta3Cl9
K3Mo2Cl9,mp-620069,0.9318,1.69316733,0.0,icsd-202297,"{19: 3, 42: 2, 17: 9}","[17, 19, 42]",179193422,K3Mo2Cl9
KH8N3,mp-974267,2.5404,-0.2250001,0.0,icsd-414496,"{19: 1, 1: 8, 7: 3}","[1, 7, 19]",1873191,K1H8N3