formula,material_id,band_gap,efermi,energy_above_hull,database_IDs,comp_atoms,sorted_keys_comp_atoms,comp_number,new_formula
K2Ca2(SO4)3,mp-15600,5.6275,0.31084991,0.0,icsd-40989,"{19: 2, 20: 2, 16: 3, 8: 12}","[8, 16, 19, 20]",812163192202,K2Ca2S3O12
K2Mn2(SO4)3,mp-6531,4.431,0.87078366,0.0,icsd-200897,"{19: 2, 25: 2, 16: 3, 8: 12}","[8, 16, 19, 25]",812163192252,K2Mn2S3O12
K2Co2(SO4)3,mp-21807,2.7184,1.24063528,0.0,icsd-81083,"{19: 2, 27: 2, 16: 3, 8: 12}","[8, 16, 19, 27]",812163192272,K2Co2S3O12
K2Cd2(SO4)3,mp-6724,3.7527999999999997,-0.03589729,0.0,icsd-200291,"{19: 2, 48: 2, 16: 3, 8: 12}","[8, 16, 19, 48]",812163192482,K2Cd2S3O12
K3Er(SO4)3,mp-1205074,5.3384,-0.0375508,0.0,icsd-39446,"{19: 3, 68: 1, 16: 3, 8: 12}","[8, 16, 19, 68]",812163193681,K3Er1S3O12
KV3(SeO6)2,mp-541520,2.3366000000000002,0.42406488,0.0,icsd-81231,"{19: 1, 23: 3, 34: 2, 8: 12}","[8, 19, 23, 34]",812191233342,K1V3Se2O12
KV3Cd4O12,mp-560167,1.9912999999999998,0.2011854,0.0,icsd-807,"{19: 1, 23: 3, 48: 4, 8: 12}","[8, 19, 23, 48]",812191233484,K1V3Cd4O12
KTh2V3O12,mp-16814,3.0708,1.12908357,0.0,icsd-8232,"{19: 1, 90: 2, 23: 3, 8: 12}","[8, 19, 23, 90]",812191233902,K1Th2V3O12
KCu4(AsO4)3,mp-21578,0.3205999999999998,2.29259544,0.0,icsd-63059,"{19: 1, 29: 4, 33: 3, 8: 12}","[8, 19, 29, 33]",812191294333,K1Cu4As3O12
KZn4(SbO4)3,mp-863678,1.6514000000000002,2.39555922,0.0,icsd-421547,"{19: 1, 30: 4, 51: 3, 8: 12}","[8, 19, 30, 51]",812191304513,K1Zn4Sb3O12
KZr2(AsO4)3,mp-541282,3.996,-0.64702553,0.0,icsd-69649,"{19: 1, 40: 2, 33: 3, 8: 12}","[8, 19, 33, 40]",812191333402,K1Zr2As3O12
KNb3(SeO6)2,mp-1202434,2.3298,2.75253316,0.0,icsd-422203,"{19: 1, 41: 3, 34: 2, 8: 12}","[8, 19, 34, 41]",812191342413,K1Nb3Se2O12
KNb3(TeO6)2,mp-1202170,2.4149000000000003,3.77087982,0.0,icsd-422199,"{19: 1, 41: 3, 52: 2, 8: 12}","[8, 19, 41, 52]",812191413522,K1Nb3Te2O12
KTa3(TeO6)2,mp-1200554,2.9431000000000003,4.84003982,0.0,icsd-422200,"{19: 1, 73: 3, 52: 2, 8: 12}","[8, 19, 52, 73]",812191522733,K1Ta3Te2O12
KAu(IO3)4,mp-557441,2.1181,1.3662662,0.0,icsd-417267,"{19: 1, 79: 1, 53: 4, 8: 12}","[8, 19, 53, 79]",812191534791,K1Au1I4O12
K2ScSn(AsO4)3,mp-1212024,2.5709,0.71623927,0.0,pf-454,"{19: 2, 21: 1, 50: 1, 33: 3, 8: 12}","[8, 19, 21, 33, 50]",812192211333501,K2Sc1Sn1As3O12
K2MnV4O12,mp-19228,1.6115,-0.50192644,0.0,icsd-203215,"{19: 2, 25: 1, 23: 4, 8: 12}","[8, 19, 23, 25]",812192234251,K2Mn1V4O12
K2SrV4O12,mp-19075,3.0368,-1.21805112,0.0,icsd-250103,"{19: 2, 38: 1, 23: 4, 8: 12}","[8, 19, 23, 38]",812192234381,K2Sr1V4O12
K2UCr(IO6)2,mp-553996,2.1162,0.46542179,0.0,icsd-281053,"{19: 2, 92: 1, 24: 1, 53: 2, 8: 12}","[8, 19, 24, 53, 92]",812192241532921,K2U1Cr1I2O12
K2Mn3(AsO4)3,mp-1195778,0.6156999999999999,2.58741009,0.0,icsd-419436,"{19: 2, 25: 3, 33: 3, 8: 12}","[8, 19, 25, 33]",812192253333,K2Mn3As3O12
K2Cu3(SeO3)4,mp-556074,0.09129999999999994,1.78850694,0.0,icsd-50541,"{19: 2, 29: 3, 34: 4, 8: 12}","[8, 19, 29, 34]",812192293344,K2Cu3Se4O12
K2Zn2(MoO4)3,mp-12194,3.3632999999999997,-0.62726436,0.0,icsd-4158,"{19: 2, 30: 2, 42: 3, 8: 12}","[8, 19, 30, 42]",812192302423,K2Zn2Mo3O12
K2Zn3(SeO3)4,mp-1195606,4.1259999999999994,-0.18344349,0.0,icsd-429803,"{19: 2, 30: 3, 34: 4, 8: 12}","[8, 19, 30, 34]",812192303344,K2Zn3Se4O12
K2UMo(IO6)2,mp-556764,2.1943,0.62959401,0.0,icsd-281056,"{19: 2, 92: 1, 42: 1, 53: 2, 8: 12}","[8, 19, 42, 53, 92]",812192421532921,K2U1Mo1I2O12
K2Te(WO4)3,mp-558216,2.362,0.75213278,0.0,icsd-97506,"{19: 2, 52: 1, 74: 3, 8: 12}","[8, 19, 52, 74]",812192521743,K2Te1W3O12
K3Sc(MoO4)3,mp-555776,3.9435000000000002,-1.3315436,0.0,icsd-42507,"{19: 3, 21: 1, 42: 3, 8: 12}","[8, 19, 21, 42]",812193211423,K3Sc1Mo3O12
K3V3(BiO6)2,mp-560736,2.9294000000000002,0.84181487,0.0,icsd-202428,"{19: 3, 23: 3, 83: 2, 8: 12}","[8, 19, 23, 83]",812193233832,K3V3Bi2O12
K3Bi2(AsO4)3,mp-561369,3.3384,1.26821704,0.0,icsd-59887,"{19: 3, 83: 2, 33: 3, 8: 12}","[8, 19, 33, 83]",812193333832,K3Bi2As3O12
K4CaU3O12,mp-16137,2.1025,2.07392303,0.0,icsd-91783,"{19: 4, 20: 1, 92: 3, 8: 12}","[8, 19, 20, 92]",812194201923,K4Ca1U3O12
K4Mn(MoO4)3,mp-558825,3.0225000000000004,0.04598806,0.0,icsd-87486,"{19: 4, 25: 1, 42: 3, 8: 12}","[8, 19, 25, 42]",812194251423,K4Mn1Mo3O12
K4Co(MoO4)3,mp-1211822,2.2285,-0.45687527,0.0,pf-26873,"{19: 4, 27: 1, 42: 3, 8: 12}","[8, 19, 27, 42]",812194271423,K4Co1Mo3O12
K4SrU3O12,mp-22634,2.0683,1.9729372,0.0,icsd-425123,"{19: 4, 38: 1, 92: 3, 8: 12}","[8, 19, 38, 92]",812194381923,K4Sr1U3O12
K4Zr5O12,mp-27377,3.1900000000000004,1.37780043,0.0,icsd-14024,"{19: 4, 40: 5, 8: 12}","[8, 19, 40]",812194405,K4Zr5O12
K4Hf5O12,mp-974482,3.2739999999999996,1.65288304,0.0,icsd-180186,"{19: 4, 72: 5, 8: 12}","[8, 19, 72]",812194725,K4Hf5O12
K2ZnCu3P3O12F,mp-556333,0.0,2.0055996,0.0,icsd-85711,"{19: 2, 30: 1, 29: 3, 15: 3, 8: 12, 9: 1}","[8, 9, 15, 19, 29, 30]",81291153192293301,K2Zn1Cu3P3O12F1
K5Nb4O12F,mp-6245,3.4353,-0.4672068,0.0,icsd-200598,"{19: 5, 41: 4, 8: 12, 9: 1}","[8, 9, 19, 41]",81291195414,K5Nb4O12F1
KNaCu3S3O13,mp-554726,0.15649999999999986,1.43821427,0.0,icsd-69451,"{19: 1, 11: 1, 29: 3, 16: 3, 8: 13}","[8, 11, 16, 19, 29]",813111163191293,K1Na1Cu3S3O13
K2Na2Nd4Nb2O13,mp-1201519,3.7800000000000002,1.16696151,0.0,icsd-380309,"{19: 2, 11: 2, 60: 4, 41: 2, 8: 13}","[8, 11, 19, 41, 60]",813112192412604,K2Na2Nd4Nb2O13
K2Na2Sm4Nb2O13,mp-1200960,3.762,1.13555707,0.0,icsd-380306,"{19: 2, 11: 2, 62: 4, 41: 2, 8: 13}","[8, 11, 19, 41, 62]",813112192412624,K2Na2Sm4Nb2O13
K2Na2Gd4Nb2O13,mp-680381,3.0952,1.36754802,0.0,icsd-380307,"{19: 2, 11: 2, 64: 4, 41: 2, 8: 13}","[8, 11, 19, 41, 64]",813112192412644,K2Na2Gd4Nb2O13
K2Na2Sm4Ta2O13,mp-1198935,3.9737999999999998,1.18931705,0.0,icsd-308311,"{19: 2, 11: 2, 62: 4, 73: 2, 8: 13}","[8, 11, 19, 62, 73]",813112192624732,K2Na2Sm4Ta2O13
KTaP4O13,mp-13792,3.6681,-0.29466571,0.0,icsd-20735,"{19: 1, 73: 1, 15: 4, 8: 13}","[8, 15, 19, 73]",813154191731,K1Ta1P4O13
K2Cu3S3O13,mp-556787,0.14050000000000007,1.18836936,0.0,icsd-71792,"{19: 2, 29: 3, 16: 3, 8: 13}","[8, 16, 19, 29]",813163192293,K2Cu3S3O13
KLa5V2O13,mp-1195137,2.9836000000000005,3.60157856,0.0,icsd-291612,"{19: 1, 57: 5, 23: 2, 8: 13}","[8, 19, 23, 57]",813191232575,K1La5V2O13
K14Fe4O13,mp-14679,2.2504999999999997,0.71864336,0.0,icsd-67170,"{19: 14, 26: 4, 8: 13}","[8, 19, 26]",8131914264,K14Fe4O13
K14In4O13,mp-554146,2.0413,0.51507057,0.0,icsd-67961,"{19: 14, 49: 4, 8: 13}","[8, 19, 49]",8131914494,K14In4O13
KTa5O13,mp-27169,3.1482,0.8688731,0.0,icsd-2462,"{19: 1, 73: 5, 8: 13}","[8, 19, 73]",813191735,K1Ta5O13
K2Ti6O13,mp-8065,2.7535,1.30463654,0.0,icsd-25712,"{19: 2, 22: 6, 8: 13}","[8, 19, 22]",813192226,K2Ti6O13
K2Nb4Fe2O13,mp-17508,1.8139999999999998,1.28936378,0.0,icsd-50038,"{19: 2, 41: 4, 26: 2, 8: 13}","[8, 19, 26, 41]",813192262414,K2Nb4Fe2O13
K2TeMo2(PO7)2,mp-1211929,2.9747,0.52978327,0.0,pf-38216,"{19: 2, 52: 1, 42: 2, 15: 2, 8: 14}","[8, 15, 19, 42, 52]",814152192422521,K2Te1Mo2P2O14
KU2P3O14,mp-606691,2.3916,0.63724554,0.0,icsd-419292,"{19: 1, 92: 2, 15: 3, 8: 14}","[8, 15, 19, 92]",814153191922,K1U2P3O14
CsK2Mn3P4ClO14,mp-1195628,3.6100000000000003,1.0235052,0.0,icsd-194899,"{55: 1, 19: 2, 25: 3, 15: 4, 17: 1, 8: 14}","[8, 15, 17, 19, 25, 55]",814154171192253551,Cs1K2Mn3P4Cl1O14
CsK2Fe3P4ClO14,mp-1190639,3.7684000000000006,1.11929285,0.0,icsd-194900,"{55: 1, 19: 2, 26: 3, 15: 4, 17: 1, 8: 14}","[8, 15, 17, 19, 26, 55]",814154171192263551,Cs1K2Fe3P4Cl1O14
KMo2(P2O7)2,mp-1211413,1.1436000000000002,1.94160803,0.0,pf-2886,"{19: 1, 42: 2, 15: 4, 8: 14}","[8, 15, 19, 42]",814154191422,K1Mo2P4O14
K2Zn3(P2O7)2,mp-560668,4.2078999999999995,0.94376756,0.0,icsd-166830,"{19: 2, 30: 3, 15: 4, 8: 14}","[8, 15, 19, 30]",814154192303,K2Zn3P4O14
K4MoS3O14,mp-557872,2.7201,-0.57050791,0.0,icsd-240923,"{19: 4, 42: 1, 16: 3, 8: 14}","[8, 16, 19, 42]",814163194421,K4Mo1S3O14
K4US3O14,mp-653182,1.8491,0.81110359,0.0,icsd-14062,"{19: 4, 92: 1, 16: 3, 8: 14}","[8, 16, 19, 92]",814163194921,K4U1S3O14
KNb8O14,mp-22826,0.0,3.94664623,0.0,icsd-71218,"{19: 1, 41: 8, 8: 14}","[8, 19, 41]",814191418,K1Nb8O14
K2Mo(I2O7)2,mp-542671,2.7181,1.19349746,0.0,icsd-59644,"{19: 2, 42: 1, 53: 4, 8: 14}","[8, 19, 42, 53]",814192421534,K2Mo1I4O14
K2U3(TeO7)2,mp-11887,1.8600999999999999,1.97385675,0.0,icsd-414064,"{19: 2, 92: 3, 52: 2, 8: 14}","[8, 19, 52, 92]",814192522923,K2U3Te2O14
K3V3(AsO7)2,mp-556255,2.8636,-0.36129141,0.0,icsd-260264,"{19: 3, 23: 3, 33: 2, 8: 14}","[8, 19, 23, 33]",814193233332,K3V3As2O14
K3V5O14,mp-27704,2.2837,-0.70484406,0.0,icsd-248227,"{19: 3, 23: 5, 8: 14}","[8, 19, 23]",814193235,K3V5O14
KBa2(PO3)5,mp-560320,5.4035,0.47938562,0.0,icsd-2919,"{19: 1, 56: 2, 15: 5, 8: 15}","[8, 15, 19, 56]",815155191562,K1Ba2P5O15
K4V5CdClO15,mp-560688,2.1279,-1.08860269,0.0,icsd-404097,"{19: 4, 23: 5, 48: 1, 17: 1, 8: 15}","[8, 17, 19, 23, 48]",815171194235481,K4V5Cd1Cl1O15
K2Au(IO3)5,mp-1195201,1.9927,3.18473864,0.0,icsd-430304,"{19: 2, 79: 1, 53: 5, 8: 15}","[8, 19, 53, 79]",815192535791,K2Au1I5O15
K2Bi(IO3)5,mp-1202167,2.9708000000000006,1.79609249,0.0,icsd-191932,"{19: 2, 83: 1, 53: 5, 8: 15}","[8, 19, 53, 83]",815192535831,K2Bi1I5O15
K2LaTa5O15,mp-1204933,2.5845000000000002,4.46793952,0.0,icsd-421750,"{19: 2, 57: 1, 73: 5, 8: 15}","[8, 19, 57, 73]",815192571735,K2La1Ta5O15
K2CeTa5O15,mp-21542,0.0481000000000007,4.28471291,0.0,icsd-82111,"{19: 2, 58: 1, 73: 5, 8: 15}","[8, 19, 58, 73]",815192581735,K2Ce1Ta5O15
K2EuTa5O15,mp-565929,0.0,1.28209779,0.0,icsd-99687,"{19: 2, 63: 1, 73: 5, 8: 15}","[8, 19, 63, 73]",815192631735,K2Eu1Ta5O15
K3CaV5O15,mp-561144,2.7283,-1.14627571,0.0,icsd-401203,"{19: 3, 20: 1, 23: 5, 8: 15}","[8, 19, 20, 23]",815193201235,K3Ca1V5O15
K3In3(PO4)4,mp-554506,3.2321999999999997,1.51336435,0.0,icsd-420106,"{19: 3, 49: 3, 15: 4, 8: 16}","[8, 15, 19, 49]",816154193493,K3In3P4O16
K3Nb(SO4)4,mp-559516,2.9435000000000002,2.13477625,0.0,icsd-201010,"{19: 3, 41: 1, 16: 4, 8: 16}","[8, 16, 19, 41]",816164193411,K3Nb1S4O16
K2S5O16,mp-27792,4.5508,-1.39175946,0.0,icsd-26180,"{19: 2, 16: 5, 8: 16}","[8, 16, 19]",816165192,K2S5O16
K17Fe5O16,mp-558482,2.0912,0.72910158,0.0,icsd-415753,"{19: 17, 26: 5, 8: 16}","[8, 19, 26]",8161917265,K17Fe5O16
K4Th(MoO4)4,mp-555417,4.0045,-0.7206957,0.0,icsd-69592,"{19: 4, 90: 1, 42: 4, 8: 16}","[8, 19, 42, 90]",816194424901,K4Th1Mo4O16
K5In(MoO4)4,mp-1203773,3.4823,3.1823945,0.0,icsd-201284,"{19: 5, 49: 1, 42: 4, 8: 16}","[8, 19, 42, 49]",816195424491,K5In1Mo4O16
K4Nb6O17,mp-560692,2.6689,-0.23427978,0.0,icsd-35030,"{19: 4, 41: 6, 8: 17}","[8, 19, 41]",817194416,K4Nb6O17
K3V2(S2O9)2,mp-1181810,1.4164999999999999,-0.16314604,0.0,icsd-81479,"{19: 3, 23: 2, 16: 4, 8: 18}","[8, 16, 19, 23]",818164193232,K3V2S4O18
KMn5(SeO3)6,mp-557389,0.4471000000000003,2.26225289,0.0,icsd-72643,"{19: 1, 25: 5, 34: 6, 8: 18}","[8, 19, 25, 34]",818191255346,K1Mn5Se6O18
K2Ge(IO3)6,mp-560685,3.1784000000000003,2.24644249,0.0,icsd-2826,"{19: 2, 32: 1, 53: 6, 8: 18}","[8, 19, 32, 53]",818192321536,K2Ge1I6O18
K3In(IO3)6,mp-1211728,3.2415000000000003,1.55738504,0.0,pf-21741,"{19: 3, 49: 1, 53: 6, 8: 18}","[8, 19, 49, 53]",818193491536,K3In1I6O18
K2Zr3OF12,mp-17888,5.4252,-1.52211727,0.0,icsd-281350,"{19: 2, 40: 3, 8: 1, 9: 12}","[8, 9, 19, 40]",81912192403,K2Zr3O1F12
K4V2S4O19,mp-1196076,2.0392,1.2397295,0.0,icsd-182332,"{19: 4, 23: 2, 16: 4, 8: 19}","[8, 16, 19, 23]",819164194232,K4V2S4O19
K3Nb6VO19,mp-561406,2.3407,0.27049756,0.0,icsd-82188,"{19: 3, 41: 6, 23: 1, 8: 19}","[8, 19, 23, 41]",819193231416,K3Nb6V1O19
KTeOF3,mp-559932,4.2120999999999995,0.00883964,0.0,icsd-411806,"{19: 1, 52: 1, 8: 1, 9: 3}","[8, 9, 19, 52]",8193191521,K1Te1O1F3
KVOF4,mp-558666,3.6667,-2.91080077,0.0,icsd-9295,"{19: 1, 23: 1, 8: 1, 9: 4}","[8, 9, 19, 23]",8194191231,K1V1O1F4
KAsOF4,mp-17539,3.7394,-1.79785995,0.0,icsd-9027,"{19: 1, 33: 1, 8: 1, 9: 4}","[8, 9, 19, 33]",8194191331,K1As1O1F4
K2TiOF4,mp-556623,3.0221999999999998,2.06187363,0.0,icsd-108804,"{19: 2, 22: 1, 8: 1, 9: 4}","[8, 9, 19, 22]",8194192221,K2Ti1O1F4
KNaNbOF5,mp-1198462,4.3822,-2.80887471,0.0,icsd-423273,"{19: 1, 11: 1, 41: 1, 8: 1, 9: 5}","[8, 9, 11, 19, 41]",8195111191411,K1Na1Nb1O1F5
K4Pt2(SO4)5,mp-556254,1.7050999999999998,0.42606058,0.0,icsd-414039,"{19: 4, 78: 2, 16: 5, 8: 20}","[8, 16, 19, 78]",820165194782,K4Pt2S5O20
K2Mo3(AsO5)4,mp-560268,2.4356999999999998,-0.34703201,0.0,icsd-83656,"{19: 2, 42: 3, 33: 4, 8: 20}","[8, 19, 33, 42]",820192334423,K2Mo3As4O20
K2U3(IO5)4,mp-556374,1.8921000000000001,1.9846897,0.0,icsd-280688,"{19: 2, 92: 3, 53: 4, 8: 20}","[8, 19, 53, 92]",820192534923,K2U3I4O20
K4Ge9O20,mp-30962,3.0665,-0.13021218,0.0,icsd-98215,"{19: 4, 32: 9, 8: 20}","[8, 19, 32]",820194329,K4Ge9O20
KNaMnO2,mp-559242,0.27449999999999974,2.29785671,0.0,icsd-61403,"{19: 1, 11: 1, 25: 1, 8: 2}","[8, 11, 19, 25]",82111191251,K1Na1Mn1O2
KNa2CuO2,mp-545359,1.5144,1.46231882,0.0,icsd-47105,"{19: 1, 11: 2, 29: 1, 8: 2}","[8, 11, 19, 29]",82112191291,K1Na2Cu1O2
KNa2AuO2,mp-559067,2.0479,0.87160933,0.0,icsd-61226,"{19: 1, 11: 2, 79: 1, 8: 2}","[8, 11, 19, 79]",82112191791,K1Na2Au1O2
K2Ge(S2O7)3,mp-1019775,3.7751,-0.90615247,0.0,icsd-422490,"{19: 2, 32: 1, 16: 6, 8: 21}","[8, 16, 19, 32]",821166192321,K2Ge1S6O21
K2Pd(S2O7)3,mp-1195978,1.4223000000000001,-0.97449016,0.0,icsd-429425,"{19: 2, 46: 1, 16: 6, 8: 21}","[8, 16, 19, 46]",821166192461,K2Pd1S6O21
K2Sn(S2O7)3,mp-1204525,3.4436,2.3870842,0.0,icsd-422492,"{19: 2, 50: 1, 16: 6, 8: 21}","[8, 16, 19, 50]",821166192501,K2Sn1S6O21
K4U5Te2O21,mp-556212,1.7690000000000001,2.13763529,0.0,icsd-153175,"{19: 4, 92: 5, 52: 2, 8: 21}","[8, 19, 52, 92]",821194522925,K4U5Te2O21
K6U2Mo4O21,mp-558070,2.1736,-0.33433545,0.0,icsd-92827,"{19: 6, 92: 2, 42: 4, 8: 21}","[8, 19, 42, 92]",821196424922,K6U2Mo4O21
KO2,mp-1866,0.0,0.36778804,0.0,icsd-180563,"{19: 1, 8: 2}","[8, 19]",82191,K1O2
KScO2,mp-8188,3.6240999999999994,1.82205967,0.0,icsd-34958,"{19: 1, 21: 1, 8: 2}","[8, 19, 21]",82191211,K1Sc1O2
KCrO2,mp-1079775,3.056,5.66452069,0.0,icsd-425293,"{19: 1, 24: 1, 8: 2}","[8, 19, 24]",82191241,K1Cr1O2
KMnO2,mp-554900,0.9530000000000003,2.01941114,0.0,icsd-31983,"{19: 1, 25: 1, 8: 2}","[8, 19, 25]",82191251,K1Mn1O2
KFeO2,mp-559464,2.1388000000000003,1.64300027,0.0,icsd-421185,"{19: 1, 26: 1, 8: 2}","[8, 19, 26]",82191261,K1Fe1O2
KCuO2,mp-3982,0.6204000000000001,0.15242135,0.0,icsd-202997,"{19: 1, 29: 1, 8: 2}","[8, 19, 29]",82191291,K1Cu1O2
KGaO2,mp-4066,3.0499,0.00094861,0.0,icsd-69019,"{19: 1, 31: 1, 8: 2}","[8, 19, 31]",82191311,K1Ga1O2
KAsO2,mp-30298,3.8449,0.20748096,0.0,icsd-413149,"{19: 1, 33: 1, 8: 2}","[8, 19, 33]",82191331,K1As1O2
KYO2,mp-8409,3.9738999999999995,1.21625083,0.0,icsd-49650,"{19: 1, 39: 1, 8: 2}","[8, 19, 39]",82191391,K1Y1O2
KSbO2,mp-10417,2.011,2.61949956,0.0,icsd-411214,"{19: 1, 51: 1, 8: 2}","[8, 19, 51]",82191511,K1Sb1O2
KLaO2,mp-7958,3.8596000000000004,3.07358829,0.0,icsd-27001,"{19: 1, 57: 1, 8: 2}","[8, 19, 57]",82191571,K1La1O2
KPrO2,mp-4519,3.6626000000000003,0.99480343,0.0,icsd-40266,"{19: 1, 59: 1, 8: 2}","[8, 19, 59]",82191591,K1Pr1O2
KErO2,mp-7959,3.9606,1.09716097,0.0,icsd-27002,"{19: 1, 68: 1, 8: 2}","[8, 19, 68]",82191681,K1Er1O2
KTlO2,mp-8175,0.8820000000000001,2.57300539,0.0,icsd-33553,"{19: 1, 81: 1, 8: 2}","[8, 19, 81]",82191811,K1Tl1O2
KPbO2,mp-28574,0.0,2.15837191,0.0,icsd-65501,"{19: 1, 82: 1, 8: 2}","[8, 19, 82]",82191821,K1Pb1O2
KBiO2,mp-30988,1.8514,2.13503775,0.0,icsd-16239,"{19: 1, 83: 1, 8: 2}","[8, 19, 83]",82191831,K1Bi1O2
K2O2,mp-2672,2.3575,0.88468063,0.0,icsd-25527,"{19: 2, 8: 2}","[8, 19]",82192,K2O2
K2CoO2,mp-28890,0.16990000000000016,1.35240871,0.0,icsd-74940,"{19: 2, 27: 1, 8: 2}","[8, 19, 27]",82192271,K2Co1O2
CsK2CoO2,mp-551244,1.6757999999999997,1.68249862,0.0,icsd-74889,"{55: 1, 19: 2, 27: 1, 8: 2}","[8, 19, 27, 55]",82192271551,Cs1K2Co1O2
K2ZnO2,mp-8187,1.9785000000000001,0.61507319,0.0,icsd-34603,"{19: 2, 30: 1, 8: 2}","[8, 19, 30]",82192301,K2Zn1O2
K2PdO2,mp-540584,1.3697,2.16042024,0.0,icsd-6158,"{19: 2, 46: 1, 8: 2}","[8, 19, 46]",82192461,K2Pd1O2
K2CdO2,mp-27742,1.3562,0.29642755,0.0,icsd-25004,"{19: 2, 48: 1, 8: 2}","[8, 19, 48]",82192481,K2Cd1O2
CsK2AuO2,mp-557807,2.1843,1.37102432,0.0,icsd-62064,"{55: 1, 19: 2, 79: 1, 8: 2}","[8, 19, 55, 79]",82192551791,Cs1K2Au1O2
K2HgO2,mp-5860,2.0773,-0.13230634,0.0,icsd-66275,"{19: 2, 80: 1, 8: 2}","[8, 19, 80]",82192801,K2Hg1O2
K2PbO2,mp-556517,1.9147,1.4594664,0.0,icsd-2266,"{19: 2, 82: 1, 8: 2}","[8, 19, 82]",82192821,K2Pb1O2
K3CoO2,mp-28825,1.6284,0.87614742,0.0,icsd-73212,"{19: 3, 27: 1, 8: 2}","[8, 19, 27]",82193271,K3Co1O2
K3CuO2,mp-28273,1.5215999999999998,1.32930781,0.0,icsd-48180,"{19: 3, 29: 1, 8: 2}","[8, 19, 29]",82193291,K3Cu1O2
K3AgO2,mp-572510,1.8095999999999999,2.01867491,0.0,icsd-200086,"{19: 3, 47: 1, 8: 2}","[8, 19, 47]",82193471,K3Ag1O2
K5Au(IO)2,mp-558332,1.8820000000000001,1.76632466,0.0,icsd-40376,"{19: 5, 79: 1, 53: 2, 8: 2}","[8, 19, 53, 79]",82195532791,K5Au1I2O2
K6U5V2O23,mp-557365,1.7214000000000003,1.23771179,0.0,icsd-91313,"{19: 6, 92: 5, 23: 2, 8: 23}","[8, 19, 23, 92]",823196232925,K6U5V2O23
K6U5As2O23,mp-1194801,1.8012,3.10998944,0.0,icsd-238271,"{19: 6, 92: 5, 33: 2, 8: 23}","[8, 19, 33, 92]",823196332925,K6U5As2O23
K5NaCe2(SO4)6,mp-554603,0.07719999999999994,3.85093831,0.0,icsd-281576,"{19: 5, 11: 1, 58: 2, 16: 6, 8: 24}","[8, 11, 16, 19, 58]",824111166195582,K5Na1Ce2S6O24
K3Fe5(PO4)6,mp-566670,1.833,2.39503939,0.0,icsd-280905,"{19: 3, 26: 5, 15: 6, 8: 24}","[8, 15, 19, 26]",824156193265,K3Fe5P6O24
KV4P7O24,mp-557659,1.9234999999999998,2.03883844,0.0,icsd-73819,"{19: 1, 23: 4, 15: 7, 8: 24}","[8, 15, 19, 23]",824157191234,K1V4P7O24
KMn6P7O24,mp-5997,3.6268000000000002,2.62823678,0.0,icsd-411489,"{19: 1, 25: 6, 15: 7, 8: 24}","[8, 15, 19, 25]",824157191256,K1Mn6P7O24
KCd6P7O24,mp-16382,3.072,4.15267143,0.0,icsd-280929,"{19: 1, 48: 6, 15: 7, 8: 24}","[8, 15, 19, 48]",824157191486,K1Cd6P7O24
K3Bi7(SO6)4,mp-1196099,3.1702999999999997,2.27600258,0.0,icsd-428100,"{19: 3, 83: 7, 16: 4, 8: 24}","[8, 16, 19, 83]",824164193837,K3Bi7S4O24
KCu7TeS5ClO24,mp-653840,0.0,2.30768805,0.0,icsd-68186,"{19: 1, 29: 7, 52: 1, 16: 5, 17: 1, 8: 24}","[8, 16, 17, 19, 29, 52]",824165171191297521,K1Cu7Te1S5Cl1O24
K7Nb(SO4)6,mp-17499,2.8575,-0.91172348,0.0,icsd-66265,"{19: 7, 41: 1, 16: 6, 8: 24}","[8, 16, 19, 41]",824166197411,K7Nb1S6O24
K7Ta(SO4)6,mp-17455,3.6873,-0.81487893,0.0,icsd-66266,"{19: 7, 73: 1, 16: 6, 8: 24}","[8, 16, 19, 73]",824166197731,K7Ta1S6O24
KMn6As7O24,mp-1200457,1.3939000000000001,3.37784386,0.0,icsd-421513,"{19: 1, 25: 6, 33: 7, 8: 24}","[8, 19, 25, 33]",824191256337,K1Mn6As7O24
K8Zr(MoO4)6,mp-560406,3.7863,-1.17462425,0.0,icsd-200388,"{19: 8, 40: 1, 42: 6, 8: 24}","[8, 19, 40, 42]",824198401426,K8Zr1Mo6O24
K8Hf(MoO4)6,mp-555607,3.7,-1.09665677,0.0,icsd-200389,"{19: 8, 72: 1, 42: 6, 8: 24}","[8, 19, 42, 72]",824198426721,K8Hf1Mo6O24
K8V2(S2O9)3,mp-704408,3.2311,-0.44295667,0.0,icsd-281485,"{19: 8, 23: 2, 16: 6, 8: 27}","[8, 16, 19, 23]",827166198232,K8V2S6O27
K2Tc9O27F11,mp-1201694,2.6543,-1.5460115,0.0,icsd-249512,"{19: 2, 43: 9, 8: 27, 9: 11}","[8, 9, 19, 43]",827911192439,K2Tc9O27F11
KCa10(PO4)7,mp-6813,5.241,1.75825186,0.0,icsd-91525,"{19: 1, 20: 10, 15: 7, 8: 28}","[8, 15, 19, 20]",8281571912010,K1Ca10P7O28
KCa9Mn(PO4)7,mp-554043,4.5333000000000006,7.00661234,0.0,icsd-94540,"{19: 1, 20: 9, 25: 1, 15: 7, 8: 28}","[8, 15, 19, 20, 25]",828157191209251,K1Ca9Mn1P7O28
CsKPt6(S3O14)2,mp-645189,1.1189,1.33563971,0.0,icsd-416469,"{55: 1, 19: 1, 78: 6, 16: 6, 8: 28}","[8, 16, 19, 55, 78]",828166191551786,Cs1K1Pt6S6O28
KSeO2F,mp-9205,3.3338,-1.16381667,0.0,icsd-78398,"{19: 1, 34: 1, 8: 2, 9: 1}","[8, 9, 19, 34]",8291191341,K1Se1O2F1
KTeO2F,mp-557231,3.7203,0.59523318,0.0,icsd-411068,"{19: 1, 52: 1, 8: 2, 9: 1}","[8, 9, 19, 52]",8291191521,K1Te1O2F1
KP(OF)2,mp-559062,5.2364999999999995,-1.329439,0.0,icsd-26640,"{19: 1, 15: 1, 8: 2, 9: 2}","[8, 9, 15, 19]",8292151191,K1P1O2F2
KI(OF)2,mp-558861,4.16,-0.28796367,0.0,icsd-27929,"{19: 1, 53: 1, 8: 2, 9: 2}","[8, 9, 19, 53]",8292191531,K1I1O2F2
K2VO2F3,mp-18832,2.7196,-0.8098752,0.0,icsd-9122,"{19: 2, 23: 1, 8: 2, 9: 3}","[8, 9, 19, 23]",8293192231,K2V1O2F3