formula,material_id,band_gap,efermi,energy_above_hull,database_IDs,comp_atoms,sorted_keys_comp_atoms,comp_number,new_formula
KRb2CuF6,mp-1206427,0.8802000000000001,-1.40625526,0.0,pf-6625,"{19: 1, 37: 2, 29: 1, 9: 6}","[9, 19, 29, 37]",96191291372,K1Rb2Cu1F6
Cs2KCuF6,mp-6968,0.8990999999999999,-1.11106775,0.0,icsd-59102,"{55: 2, 19: 1, 29: 1, 9: 6}","[9, 19, 29, 55]",96191291552,Cs2K1Cu1F6
KRb2GaF6,mp-13190,5.8894,-2.58885989,0.0,icsd-416605,"{19: 1, 37: 2, 31: 1, 9: 6}","[9, 19, 31, 37]",96191311372,K1Rb2Ga1F6
KTl2GaF6,mp-1206641,4.5515,-0.58860561,0.0,pf-40063,"{19: 1, 81: 2, 31: 1, 9: 6}","[9, 19, 31, 81]",96191311812,K1Tl2Ga1F6
KAsF6,mp-4266,4.9494,-3.17906679,0.0,icsd-59413,"{19: 1, 33: 1, 9: 6}","[9, 19, 33]",96191331,K1As1F6
KRb2YF6,mp-7012,6.383,-3.14921109,0.0,icsd-73472,"{19: 1, 37: 2, 39: 1, 9: 6}","[9, 19, 37, 39]",96191372391,K1Rb2Y1F6
KRb2MoF6,mp-554168,3.6262000000000003,-0.28730395,0.0,icsd-15773,"{19: 1, 37: 2, 42: 1, 9: 6}","[9, 19, 37, 42]",96191372421,K1Rb2Mo1F6
KRb2RhF6,mp-14036,2.1662,-0.02191313,0.0,icsd-27339,"{19: 1, 37: 2, 45: 1, 9: 6}","[9, 19, 37, 45]",96191372451,K1Rb2Rh1F6
KRb2InF6,mp-1211320,5.5594,2.95611639,0.0,pf-41483,"{19: 1, 37: 2, 49: 1, 9: 6}","[9, 19, 37, 49]",96191372491,K1Rb2In1F6
Cs2KYF6,mp-6059,6.464,-2.54037573,0.0,icsd-25367,"{55: 2, 19: 1, 39: 1, 9: 6}","[9, 19, 39, 55]",96191391552,Cs2K1Y1F6
Cs2KMoF6,mp-557133,4.1117,0.27200119,0.0,icsd-4053,"{55: 2, 19: 1, 42: 1, 9: 6}","[9, 19, 42, 55]",96191421552,Cs2K1Mo1F6
KTl2MoF6,mp-560959,2.4401,1.05091873,0.0,icsd-15775,"{19: 1, 81: 2, 42: 1, 9: 6}","[9, 19, 42, 81]",96191421812,K1Tl2Mo1F6
KRuF6,mp-8013,1.1302,-1.89687107,0.0,icsd-28692,"{19: 1, 44: 1, 9: 6}","[9, 19, 44]",96191441,K1Ru1F6
KRhF6,mp-1080622,0.0,-1.79280421,0.0,icsd-165215,"{19: 1, 45: 1, 9: 6}","[9, 19, 45]",96191451,K1Rh1F6
Cs2KRhF6,mp-561561,2.1012999999999997,0.51287658,0.0,icsd-4056,"{55: 2, 19: 1, 45: 1, 9: 6}","[9, 19, 45, 55]",96191451552,Cs2K1Rh1F6
Cs2KAgF6,mp-13687,0.6370999999999999,-1.26382864,0.0,icsd-16783,"{55: 2, 19: 1, 47: 1, 9: 6}","[9, 19, 47, 55]",96191471552,Cs2K1Ag1F6
KSbF6,mp-541908,4.9633,-3.19774834,0.0,icsd-76653,"{19: 1, 51: 1, 9: 6}","[9, 19, 51]",96191511,K1Sb1F6
Cs2KBiF6,mp-573204,4.9469,-0.52869733,0.0,icsd-9383,"{55: 2, 19: 1, 83: 1, 9: 6}","[9, 19, 55, 83]",96191552831,Cs2K1Bi1F6
KOsF6,mp-7984,1.3498,-1.09493261,0.0,icsd-27664,"{19: 1, 76: 1, 9: 6}","[9, 19, 76]",96191761,K1Os1F6
KBiF6,mp-504669,2.7061,-3.52277023,0.0,icsd-25024,"{19: 1, 83: 1, 9: 6}","[9, 19, 83]",96191831,K1Bi1F6
K2TiF6,mp-3970,4.7349,-2.72837669,0.0,icsd-280318,"{19: 2, 22: 1, 9: 6}","[9, 19, 22]",96192221,K2Ti1F6
K2CrF6,mp-1211950,0.0,-2.14027433,0.0,pf-21484,"{19: 2, 24: 1, 9: 6}","[9, 19, 24]",96192241,K2Cr1F6
K2MnF6,mp-560127,2.9778000000000002,-3.09735496,0.0,icsd-60417,"{19: 2, 25: 1, 9: 6}","[9, 19, 25]",96192251,K2Mn1F6
K2CoF6,mp-1206883,1.1713,-2.8745351,0.0,pf-23569,"{19: 2, 27: 1, 9: 6}","[9, 19, 27]",96192271,K2Co1F6
K2GeF6,mp-7825,5.799799999999999,-2.80172282,0.0,icsd-24026,"{19: 2, 32: 1, 9: 6}","[9, 19, 32]",96192321,K2Ge1F6
K2ZrF6,mp-5450,5.3289,-2.08356759,0.0,icsd-250371,"{19: 2, 40: 1, 9: 6}","[9, 19, 40]",96192401,K2Zr1F6
K2TcF6,mp-1091363,1.7181,0.14528115,0.0,icsd-425914,"{19: 2, 43: 1, 9: 6}","[9, 19, 43]",96192431,K2Tc1F6
K2RhF6,mp-8018,0.0,-0.94265853,0.0,icsd-28779,"{19: 2, 45: 1, 9: 6}","[9, 19, 45]",96192451,K2Rh1F6
K2PdF6,mp-7979,2.0399000000000003,-2.02499874,0.0,icsd-27486,"{19: 2, 46: 1, 9: 6}","[9, 19, 46]",96192461,K2Pd1F6
K2SnF6,mp-1205971,5.1508,2.81329274,0.0,pf-7005,"{19: 2, 50: 1, 9: 6}","[9, 19, 50]",96192501,K2Sn1F6
K2CeF6,mp-1206010,2.1176,0.64083862,0.0,pf-1315,"{19: 2, 58: 1, 9: 6}","[9, 19, 58]",96192581,K2Ce1F6
K2HfF6,mp-14128,6.4694,-1.79047412,0.0,icsd-29514,"{19: 2, 72: 1, 9: 6}","[9, 19, 72]",96192721,K2Hf1F6
K2ReF6,mp-7824,1.6997,0.70440068,0.0,icsd-1528,"{19: 2, 75: 1, 9: 6}","[9, 19, 75]",96192751,K2Re1F6
K2IrF6,mp-11174,0.0,0.04033651,0.0,icsd-95779,"{19: 2, 77: 1, 9: 6}","[9, 19, 77]",96192771,K2Ir1F6
K2PtF6,mp-3821,2.5717,-1.06482487,0.0,icsd-87360,"{19: 2, 78: 1, 9: 6}","[9, 19, 78]",96192781,K2Pt1F6
K2ThF6,mp-14193,6.3807,-1.50430152,0.0,icsd-31609,"{19: 2, 90: 1, 9: 6}","[9, 19, 90]",96192901,K2Th1F6
K3CrF6,mp-1111695,4.3858,-1.57563725,0.0,pf-17060,"{19: 3, 24: 1, 9: 6}","[9, 19, 24]",96193241,K3Cr1F6
K3CoF6,mp-1111145,2.8983999999999996,-2.29922232,0.0,pf-3673,"{19: 3, 27: 1, 9: 6}","[9, 19, 27]",96193271,K3Co1F6
K3GaF6,mp-1111080,5.7897,-2.84567085,0.0,pf-25292,"{19: 3, 31: 1, 9: 6}","[9, 19, 31]",96193311,K3Ga1F6
K3YF6,mp-13230,6.459300000000001,-3.25881935,0.0,icsd-416296,"{19: 3, 39: 1, 9: 6}","[9, 19, 39]",96193391,K3Y1F6
K3MoF6,mp-553896,3.3529999999999998,-0.46323876,0.0,icsd-4403,"{19: 3, 42: 1, 9: 6}","[9, 19, 42]",96193421,K3Mo1F6
K3HoF6,mp-1211714,6.7356,3.36118828,0.0,pf-11299,"{19: 3, 67: 1, 9: 6}","[9, 19, 67]",96193671,K3Ho1F6
K3ErF6,mp-1211695,6.7433,3.37678327,0.0,pf-21890,"{19: 3, 68: 1, 9: 6}","[9, 19, 68]",96193681,K3Er1F6
K3TmF6,mp-1211645,6.7339,3.35309795,0.0,pf-32329,"{19: 3, 69: 1, 9: 6}","[9, 19, 69]",96193691,K3Tm1F6
K3WF6,mp-555403,2.8446000000000002,-0.21383477,0.0,icsd-51264,"{19: 3, 74: 1, 9: 6}","[9, 19, 74]",96193741,K3W1F6
KSc2F7,mp-28439,5.7069,-1.90671858,0.0,icsd-47227,"{19: 1, 21: 2, 9: 7}","[9, 19, 21]",97191212,K1Sc2F7
KZrVF7,mp-554835,1.9948000000000001,3.6056296,0.0,icsd-94458,"{19: 1, 40: 1, 23: 1, 9: 7}","[9, 19, 23, 40]",97191231401,K1Zr1V1F7
KHfCuF7,mp-561312,0.3462,-0.21683899,0.0,icsd-92470,"{19: 1, 72: 1, 29: 1, 9: 7}","[9, 19, 29, 72]",97191291721,K1Hf1Cu1F7
KAs2F7,mp-28085,4.7762,-1.62365055,0.0,icsd-36332,"{19: 1, 33: 2, 9: 7}","[9, 19, 33]",97191332,K1As2F7
KZrSnF7,mp-556631,4.0133,0.37508116,0.0,icsd-250235,"{19: 1, 40: 1, 50: 1, 9: 7}","[9, 19, 40, 50]",97191401501,K1Zr1Sn1F7
KHfPdF7,mp-17429,0.0,0.11965355,0.0,icsd-79072,"{19: 1, 72: 1, 46: 1, 9: 7}","[9, 19, 46, 72]",97191461721,K1Hf1Pd1F7
KSb2F7,mp-27389,3.8831,-0.00603807,0.0,icsd-14118,"{19: 1, 51: 2, 9: 7}","[9, 19, 51]",97191512,K1Sb2F7
KDy2F7,mp-1211771,6.769,5.00068657,0.0,pf-36606,"{19: 1, 66: 2, 9: 7}","[9, 19, 66]",97191662,K1Dy2F7
KHo2F7,mp-31030,6.916099999999999,-1.56338162,0.0,icsd-63531,"{19: 1, 67: 2, 9: 7}","[9, 19, 67]",97191672,K1Ho2F7
KEr2F7,mp-27925,6.9713,-2.1811637,0.0,icsd-23384,"{19: 1, 68: 2, 9: 7}","[9, 19, 68]",97191682,K1Er2F7
K2RbMn2F7,mp-558227,2.9207,0.51978306,0.0,icsd-410707,"{19: 2, 37: 1, 25: 2, 9: 7}","[9, 19, 25, 37]",97192252371,K2Rb1Mn2F7
K2NbF7,mp-4758,4.5283999999999995,-3.12771736,0.0,icsd-14132,"{19: 2, 41: 1, 9: 7}","[9, 19, 41]",97192411,K2Nb1F7
K2TaF7,mp-3975,5.608499999999999,-3.03794246,0.0,icsd-19067,"{19: 2, 73: 1, 9: 7}","[9, 19, 73]",97192731,K2Ta1F7
K2PaF7,mp-542445,3.6522,-1.28632929,0.0,icsd-16874,"{19: 2, 91: 1, 9: 7}","[9, 19, 91]",97192911,K2Pa1F7
K3Mn2F7,mp-554144,1.0475,1.00460585,0.0,icsd-33525,"{19: 3, 25: 2, 9: 7}","[9, 19, 25]",97193252,K3Mn2F7
K3Co2F7,mp-555101,0.0,0.49940915,0.0,icsd-33524,"{19: 3, 27: 2, 9: 7}","[9, 19, 27]",97193272,K3Co2F7
K3Zn2F7,mp-3125,4.0269,-1.50579257,0.0,icsd-9925,"{19: 3, 30: 2, 9: 7}","[9, 19, 30]",97193302,K3Zn2F7
K10Gd22F79,mp-1213565,0.0,-1.66745236,0.0,pf-33843,"{19: 10, 64: 22, 9: 79}","[9, 19, 64]",97919106422,K10Gd22F79
K2ReF8,mp-27595,1.0682,-0.6691357,0.0,icsd-20029,"{19: 2, 75: 1, 9: 8}","[9, 19, 75]",98192751,K2Re1F8
K3TaF8,mp-866663,3.8497000000000003,-1.19907085,0.0,icsd-248063,"{19: 3, 73: 1, 9: 8}","[9, 19, 73]",98193731,K3Ta1F8
KCr2PbF9,mp-554377,3.0941,-0.34835035,0.0,icsd-32621,"{19: 1, 24: 2, 82: 1, 9: 9}","[9, 19, 24, 82]",99191242821,K1Cr2Pb1F9
KTe2F9,mp-29144,4.5077,-0.95611997,0.0,icsd-84364,"{19: 1, 52: 2, 9: 9}","[9, 19, 52]",99191522,K1Te2F9
KTh2F9,mp-1211350,6.4422,-1.24929377,0.0,pf-11007,"{19: 1, 90: 2, 9: 9}","[9, 19, 90]",99191902,K1Th2F9
KU2F9,mp-504555,0.17140000000000022,3.77984414,0.0,icsd-16065,"{19: 1, 92: 2, 9: 9}","[9, 19, 92]",99191922,K1U2F9
KNp2F9,mp-1211682,0.2835000000000001,3.06810919,0.0,pf-21567,"{19: 1, 93: 2, 9: 9}","[9, 19, 93]",99191932,K1Np2F9
KPu2F9,mp-1211482,0.30889999999999995,2.13154798,0.0,pf-32025,"{19: 1, 94: 2, 9: 9}","[9, 19, 94]",99191942,K1Pu2F9