formula,material_id,band_gap,efermi,energy_above_hull,database_IDs,comp_atoms,sorted_keys_comp_atoms,comp_number,new_formula
K3UO2F5,mp-6785,2.7138999999999998,-1.03383156,0.0,icsd-63355,"{19: 3, 92: 1, 8: 2, 9: 5}","[8, 9, 19, 92]",8295193921,K3U1O2F5
K3NpO2F5,mp-9637,0.0,0.91027664,0.0,icsd-201895,"{19: 3, 93: 1, 8: 2, 9: 5}","[8, 9, 19, 93]",8295193931,K3Np1O2F5
KNaTiO3,mp-560767,3.542,0.72776509,0.0,icsd-47177,"{19: 1, 11: 1, 22: 1, 8: 3}","[8, 11, 19, 22]",83111191221,K1Na1Ti1O3
KNaGeO3,mp-558085,3.0403000000000002,0.69207523,0.0,icsd-30910,"{19: 1, 11: 1, 32: 1, 8: 3}","[8, 11, 19, 32]",83111191321,K1Na1Ge1O3
K2NaFeO3,mp-560924,0.0,1.31508482,0.0,icsd-36380,"{19: 2, 11: 1, 26: 1, 8: 3}","[8, 11, 19, 26]",83111192261,K2Na1Fe1O3
K2NaTlO3,mp-560950,1.2618999999999998,0.70260603,0.0,icsd-74956,"{19: 2, 11: 1, 81: 1, 8: 3}","[8, 11, 19, 81]",83111192811,K2Na1Tl1O3
KNa2GaO3,mp-17785,2.5055,0.52359417,0.0,icsd-62136,"{19: 1, 11: 2, 31: 1, 8: 3}","[8, 11, 19, 31]",83112191311,K1Na2Ga1O3
KPO3,mp-5039,5.0422,-0.66681588,0.0,icsd-15872,"{19: 1, 15: 1, 8: 3}","[8, 15, 19]",83151191,K1P1O3
K3VSO3,mp-561048,3.1383,-0.12396477,0.0,icsd-419400,"{19: 3, 23: 1, 16: 1, 8: 3}","[8, 16, 19, 23]",83161193231,K3V1S1O3
KVO3,mp-18815,3.0460000000000003,-0.92212256,0.0,icsd-1486,"{19: 1, 23: 1, 8: 3}","[8, 19, 23]",83191231,K1V1O3
KBaFeO3,mp-18038,0.5118,1.3939339,0.0,icsd-412877,"{19: 1, 56: 1, 26: 1, 8: 3}","[8, 19, 26, 56]",83191261561,K1Ba1Fe1O3
KRbGeO3,mp-1211560,3.0096,2.78743993,0.0,pf-29708,"{19: 1, 37: 1, 32: 1, 8: 3}","[8, 19, 32, 37]",83191321371,K1Rb1Ge1O3
KAsO3,mp-1194970,3.0119000000000002,-0.66611702,0.0,icsd-194476,"{19: 1, 33: 1, 8: 3}","[8, 19, 33]",83191331,K1As1O3
KBrO3,mp-22958,3.8569,-0.41593381,0.0,icsd-74767,"{19: 1, 35: 1, 8: 3}","[8, 19, 35]",83191351,K1Br1O3
KNbO3,mp-7375,2.2934,1.18912488,0.0,icsd-9534,"{19: 1, 41: 1, 8: 3}","[8, 19, 41]",83191411,K1Nb1O3
KPd2O3,mp-1095520,0.26480000000000015,1.68598184,0.0,icsd-248051,"{19: 1, 46: 2, 8: 3}","[8, 19, 46]",83191462,K1Pd2O3
KSbO3,mp-547792,2.6808,1.49502496,0.0,icsd-5311,"{19: 1, 51: 1, 8: 3}","[8, 19, 51]",83191511,K1Sb1O3
KIO3,mp-1200675,2.8533,1.28462724,0.0,icsd-423584,"{19: 1, 53: 1, 8: 3}","[8, 19, 53]",83191531,K1I1O3
KTaO3,mp-3614,2.0995,1.68905649,0.0,icsd-184922,"{19: 1, 73: 1, 8: 3}","[8, 19, 73]",83191731,K1Ta1O3
KIrO3,mp-639811,0.0,2.71540674,0.0,icsd-4200,"{19: 1, 77: 1, 8: 3}","[8, 19, 77]",83191771,K1Ir1O3
KBiO3,mp-29799,0.49140000000000006,1.19517403,0.0,icsd-41204,"{19: 1, 83: 1, 8: 3}","[8, 19, 83]",83191831,K1Bi1O3
KPaO3,mp-1206970,3.0477,2.88447885,0.0,pf-8562,"{19: 1, 91: 1, 8: 3}","[8, 19, 91]",83191911,K1Pa1O3
KUO3,mp-4126,0.44540000000000024,4.86787333,0.0,icsd-99547,"{19: 1, 92: 1, 8: 3}","[8, 19, 92]",83191921,K1U1O3
K2TiO3,mp-13133,3.4121,0.62211722,0.0,icsd-162216,"{19: 2, 22: 1, 8: 3}","[8, 19, 22]",83192221,K2Ti1O3
K2Mn2O3,mp-19148,0.0,2.5966609,0.0,icsd-61038,"{19: 2, 25: 2, 8: 3}","[8, 19, 25]",83192252,K2Mn2O3
K2Ge2O3,mp-1211960,2.0371,2.13939905,0.0,pf-41117,"{19: 2, 32: 2, 8: 3}","[8, 19, 32]",83192322,K2Ge2O3
K2ZrO3,mp-18449,3.6617,0.0428575,0.0,icsd-16264,"{19: 2, 40: 1, 8: 3}","[8, 19, 40]",83192401,K2Zr1O3
K2Cd2O3,mp-7534,0.6513,0.27050279,0.0,icsd-16223,"{19: 2, 48: 2, 8: 3}","[8, 19, 48]",83192482,K2Cd2O3
K2SnO3,mp-17730,2.1547,1.36444161,0.0,icsd-24131,"{19: 2, 50: 1, 8: 3}","[8, 19, 50]",83192501,K2Sn1O3
K2Sn2O3,mp-8624,1.3022,3.35142753,0.0,icsd-40463,"{19: 2, 50: 2, 8: 3}","[8, 19, 50]",83192502,K2Sn2O3
K2TeO3,mp-8724,3.5774,0.43586352,0.0,icsd-65640,"{19: 2, 52: 1, 8: 3}","[8, 19, 52]",83192521,K2Te1O3
K2PbO3,mp-561277,1.1376,1.66398399,0.0,icsd-15929,"{19: 2, 82: 1, 8: 3}","[8, 19, 82]",83192821,K2Pb1O3
K2Pb2O3,mp-20694,1.6906999999999996,2.60597878,0.0,icsd-1412,"{19: 2, 82: 2, 8: 3}","[8, 19, 82]",83192822,K2Pb2O3
K2ThO3,mp-1211547,3.7257000000000002,1.37944654,0.0,pf-41644,"{19: 2, 90: 1, 8: 3}","[8, 19, 90]",83192901,K2Th1O3
K3MnO3,mp-540914,1.3245000000000002,1.08793342,0.0,icsd-34392,"{19: 3, 25: 1, 8: 3}","[8, 19, 25]",83193251,K3Mn1O3
K3FeO3,mp-504570,0.0,1.41493779,0.0,icsd-6149,"{19: 3, 26: 1, 8: 3}","[8, 19, 26]",83193261,K3Fe1O3
K3GaO3,mp-13743,2.6237,0.11546995,0.0,icsd-2269,"{19: 3, 31: 1, 8: 3}","[8, 19, 31]",83193311,K3Ga1O3
K3SbO3,mp-17250,3.2348,0.84590854,0.0,icsd-279579,"{19: 3, 51: 1, 8: 3}","[8, 19, 51]",83193511,K3Sb1O3
K3BiO3,mp-29524,2.9552,0.49814456,0.0,icsd-407293,"{19: 3, 83: 1, 8: 3}","[8, 19, 83]",83193831,K3Bi1O3
K4ZnO3,mp-28382,1.6945999999999999,0.38147246,0.0,icsd-62656,"{19: 4, 30: 1, 8: 3}","[8, 19, 30]",83194301,K4Zn1O3
K4SnO3,mp-14988,2.1095,1.65348764,0.0,icsd-79101,"{19: 4, 50: 1, 8: 3}","[8, 19, 50]",83194501,K4Sn1O3
K4PbO3,mp-21949,2.279,1.21143855,0.0,icsd-1564,"{19: 4, 82: 1, 8: 3}","[8, 19, 82]",83194821,K4Pb1O3
K2PO3F,mp-6441,4.4668,-0.28666737,0.0,icsd-200441,"{19: 2, 15: 1, 8: 3, 9: 1}","[8, 9, 15, 19]",8391151192,K2P1O3F1
K5Nb3O3F14,mp-1202095,0.00019999999999997797,1.20302319,0.0,icsd-236201,"{19: 5, 41: 3, 8: 3, 9: 14}","[8, 9, 19, 41]",83914195413,K5Nb3O3F14
KMnP(OF)3,mp-1198325,0.15090000000000003,0.88653287,0.0,icsd-424940,"{19: 1, 25: 1, 15: 1, 8: 3, 9: 3}","[8, 9, 15, 19, 25]",8393151191251,K1Mn1P1O3F3
K2Ta2(OF2)3,mp-6651,3.9245,-1.68073748,0.0,icsd-126,"{19: 2, 73: 2, 8: 3, 9: 6}","[8, 9, 19, 73]",8396192732,K2Ta2O3F6
K3Mo12PO40,mp-560580,2.2502,0.1050402,0.0,icsd-150445,"{19: 3, 42: 12, 15: 1, 8: 40}","[8, 15, 19, 42]",8401511934212,K3Mo12P1O40
K2NaMnO4,mp-555116,1.4825,0.58349571,0.0,icsd-71623,"{19: 2, 11: 1, 25: 1, 8: 4}","[8, 11, 19, 25]",84111192251,K2Na1Mn1O4
K2Na2IrO4,mp-559878,0.1484000000000001,2.36603628,0.0,icsd-74912,"{19: 2, 11: 2, 77: 1, 8: 4}","[8, 11, 19, 77]",84112192771,K2Na2Ir1O4
K3Na2InO4,mp-553975,1.9064999999999999,0.88395908,0.0,icsd-63489,"{19: 3, 11: 2, 49: 1, 8: 4}","[8, 11, 19, 49]",84112193491,K3Na2In1O4
K2Na3InO4,mp-504962,1.92,0.98641875,0.0,icsd-64671,"{19: 2, 11: 3, 49: 1, 8: 4}","[8, 11, 19, 49]",84113192491,K2Na3In1O4
K2Na3TlO4,mp-17375,1.3295999999999997,0.81775173,0.0,icsd-61402,"{19: 2, 11: 3, 81: 1, 8: 4}","[8, 11, 19, 81]",84113192811,K2Na3Tl1O4
KNa4FeO4,mp-1205067,2.0784000000000002,0.85776401,0.0,icsd-174306,"{19: 1, 11: 4, 26: 1, 8: 4}","[8, 11, 19, 26]",84114191261,K1Na4Fe1O4
KNa4GaO4,mp-14428,2.3967,0.3270467,0.0,icsd-48118,"{19: 1, 11: 4, 31: 1, 8: 4}","[8, 11, 19, 31]",84114191311,K1Na4Ga1O4
KMnPO4,mp-555605,1.3002000000000002,1.94926564,0.0,icsd-78840,"{19: 1, 25: 1, 15: 1, 8: 4}","[8, 15, 19, 25]",84151191251,K1Mn1P1O4
KFePO4,mp-561267,3.1632,0.94816776,0.0,icsd-415458,"{19: 1, 26: 1, 15: 1, 8: 4}","[8, 15, 19, 26]",84151191261,K1Fe1P1O4
KCoPO4,mp-557981,0.46050000000000013,2.27186961,0.0,icsd-74808,"{19: 1, 27: 1, 15: 1, 8: 4}","[8, 15, 19, 27]",84151191271,K1Co1P1O4
KCuPO4,mp-649472,0.0,1.54424054,0.0,icsd-30886,"{19: 1, 29: 1, 15: 1, 8: 4}","[8, 15, 19, 29]",84151191291,K1Cu1P1O4
KZnPO4,mp-653973,3.8873,3.85157177,0.0,icsd-72401,"{19: 1, 30: 1, 15: 1, 8: 4}","[8, 15, 19, 30]",84151191301,K1Zn1P1O4
KSrPO4,mp-17975,5.0889,1.4326787,0.0,icsd-83598,"{19: 1, 38: 1, 15: 1, 8: 4}","[8, 15, 19, 38]",84151191381,K1Sr1P1O4
KBaPO4,mp-6812,4.9502999999999995,1.02250514,0.0,icsd-202430,"{19: 1, 56: 1, 15: 1, 8: 4}","[8, 15, 19, 56]",84151191561,K1Ba1P1O4
KEuPO4,mp-18045,0.0,6.38887521,0.0,icsd-36647,"{19: 1, 63: 1, 15: 1, 8: 4}","[8, 15, 19, 63]",84151191631,K1Eu1P1O4
K3PO4,mp-557753,3.9991,0.25812832,0.0,icsd-158801,"{19: 3, 15: 1, 8: 4}","[8, 15, 19]",84151193,K3P1O4
KBiS(ClO2)2,mp-23645,4.179,-0.11705857,0.0,icsd-409773,"{19: 1, 83: 1, 16: 1, 17: 2, 8: 4}","[8, 16, 17, 19, 83]",84161172191831,K1Bi1S1Cl2O4
K2CuS(ClO2)2,mp-560601,0.5867,0.32420961,0.0,icsd-22364,"{19: 2, 29: 1, 16: 1, 17: 2, 8: 4}","[8, 16, 17, 19, 29]",84161172192291,K2Cu1S1Cl2O4
K2SO4,mp-4529,5.2168,-0.05204669,0.0,icsd-79778,"{19: 2, 16: 1, 8: 4}","[8, 16, 19]",84161192,K2S1O4
KClO4,mp-23526,5.5614,-0.97002682,0.0,icsd-36317,"{19: 1, 17: 1, 8: 4}","[8, 17, 19]",84171191,K1Cl1O4
KLaTiO4,mp-1104930,2.3399000000000005,3.45718023,0.0,icsd-261365,"{19: 1, 57: 1, 22: 1, 8: 4}","[8, 19, 22, 57]",84191221571,K1La1Ti1O4
KNdTiO4,mp-1211538,2.3606999999999996,4.1873499,0.0,pf-40858,"{19: 1, 60: 1, 22: 1, 8: 4}","[8, 19, 22, 60]",84191221601,K1Nd1Ti1O4
KSrVO4,mp-556966,3.8445,0.27710305,0.0,icsd-91782,"{19: 1, 38: 1, 23: 1, 8: 4}","[8, 19, 23, 38]",84191231381,K1Sr1V1O4
KVCdO4,mp-559503,2.8749,2.69362543,0.0,icsd-83592,"{19: 1, 23: 1, 48: 1, 8: 4}","[8, 19, 23, 48]",84191231481,K1V1Cd1O4
KBaVO4,mp-18892,3.6403000000000003,-0.02456972,0.0,icsd-404249,"{19: 1, 56: 1, 23: 1, 8: 4}","[8, 19, 23, 56]",84191231561,K1Ba1V1O4
KVPbO4,mp-541508,3.3834000000000004,1.18744134,0.0,icsd-80816,"{19: 1, 23: 1, 82: 1, 8: 4}","[8, 19, 23, 82]",84191231821,K1V1Pb1O4
KBaMnO4,mp-1192441,1.8093000000000001,2.63180818,0.0,icsd-238981,"{19: 1, 56: 1, 25: 1, 8: 4}","[8, 19, 25, 56]",84191251561,K1Ba1Mn1O4
KGaGeO4,mp-1213396,3.197,-0.55153907,0.0,pf-8225,"{19: 1, 31: 1, 32: 1, 8: 4}","[8, 19, 31, 32]",84191311321,K1Ga1Ge1O4
KAg2AsO4,mp-12015,0.2116,1.45797878,0.0,icsd-409793,"{19: 1, 47: 2, 33: 1, 8: 4}","[8, 19, 33, 47]",84191331472,K1Ag2As1O4
KBaAsO4,mp-1192590,3.8409,0.46544113,0.0,icsd-238982,"{19: 1, 56: 1, 33: 1, 8: 4}","[8, 19, 33, 56]",84191331561,K1Ba1As1O4
KTcO4,mp-7621,3.1886,-1.702714,0.0,icsd-61,"{19: 1, 43: 1, 8: 4}","[8, 19, 43]",84191431,K1Tc1O4
KRuO4,mp-14005,0.0,0.54331972,0.0,icsd-26612,"{19: 1, 44: 1, 8: 4}","[8, 19, 44]",84191441,K1Ru1O4
KIO4,mp-23562,2.3491999999999997,-0.42471356,0.0,icsd-83376,"{19: 1, 53: 1, 8: 4}","[8, 19, 53]",84191531,K1I1O4
KReO4,mp-4757,3.7244,-1.68844065,0.0,icsd-72501,"{19: 1, 75: 1, 8: 4}","[8, 19, 75]",84191751,K1Re1O4
K2TiZnO4,mp-1211941,3.6582000000000003,-0.15350952,0.0,pf-1071,"{19: 2, 22: 1, 30: 1, 8: 4}","[8, 19, 22, 30]",84192221301,K2Ti1Zn1O4
K2CrO4,mp-19232,3.0699,-1.19838376,0.0,icsd-30266,"{19: 2, 24: 1, 8: 4}","[8, 19, 24]",84192241,K2Cr1O4
K2MnO4,mp-504636,0.22920000000000001,-0.0283969,0.0,icsd-22245,"{19: 2, 25: 1, 8: 4}","[8, 19, 25]",84192251,K2Mn1O4
K2FeO4,mp-19320,1.27,-0.76823797,0.0,icsd-2876,"{19: 2, 26: 1, 8: 4}","[8, 19, 26]",84192261,K2Fe1O4
K2ZnGeO4,mp-6386,2.8518,-0.03050152,0.0,icsd-69018,"{19: 2, 30: 1, 32: 1, 8: 4}","[8, 19, 30, 32]",84192301321,K2Zn1Ge1O4
K2Zn3O4,mp-28371,1.4102000000000001,0.68084052,0.0,icsd-62146,"{19: 2, 30: 3, 8: 4}","[8, 19, 30]",84192303,K2Zn3O4
K2CdGeO4,mp-1212732,2.3122000000000003,-0.33521278,0.0,pf-32489,"{19: 2, 48: 1, 32: 1, 8: 4}","[8, 19, 32, 48]",84192321481,K2Cd1Ge1O4
K2SeO4,mp-557025,3.6435,-0.80277625,0.0,icsd-201893,"{19: 2, 34: 1, 8: 4}","[8, 19, 34]",84192341,K2Se1O4
K2MoO4,mp-18914,4.0703,-0.92360356,0.0,icsd-150842,"{19: 2, 42: 1, 8: 4}","[8, 19, 42]",84192421,K2Mo1O4
K2RuO4,mp-17789,0.16959999999999997,1.05838504,0.0,icsd-415749,"{19: 2, 44: 1, 8: 4}","[8, 19, 44]",84192441,K2Ru1O4
K2WO4,mp-18780,4.3858,-1.10452714,0.0,icsd-26181,"{19: 2, 74: 1, 8: 4}","[8, 19, 74]",84192741,K2W1O4
K2UO4,mp-3808,1.9773,1.56913522,0.0,icsd-20141,"{19: 2, 92: 1, 8: 4}","[8, 19, 92]",84192921,K2U1O4
K2NpO4,mp-1025162,0.2662,3.01213477,0.0,pf-30961,"{19: 2, 93: 1, 8: 4}","[8, 19, 93]",84192931,K2Np1O4
K2PuO4,mp-1025158,0.0,2.77076801,0.0,pf-697,"{19: 2, 94: 1, 8: 4}","[8, 19, 94]",84192941,K2Pu1O4
K3VO4,mp-560869,4.0392,-0.54296109,0.0,icsd-108936,"{19: 3, 23: 1, 8: 4}","[8, 19, 23]",84193231,K3V1O4
K3MnO4,mp-19140,0.0,1.23920934,0.0,icsd-108935,"{19: 3, 25: 1, 8: 4}","[8, 19, 25]",84193251,K3Mn1O4
K3FeO4,mp-28696,0.0,0.47879675,0.0,icsd-65977,"{19: 3, 26: 1, 8: 4}","[8, 19, 26]",84193261,K3Fe1O4
K3(CuO2)2,mp-1188268,0.0,1.99234575,0.0,icsd-380487,"{19: 3, 29: 2, 8: 4}","[8, 19, 29]",84193292,K3Cu2O4
K3Cu5O4,mp-10914,1.1966999999999999,2.90841758,0.0,icsd-94387,"{19: 3, 29: 5, 8: 4}","[8, 19, 29]",84193295,K3Cu5O4
K3AsO4,mp-680301,3.3075,-0.19017496,0.0,icsd-412391,"{19: 3, 33: 1, 8: 4}","[8, 19, 33]",84193331,K3As1O4
K3(PdO2)2,mp-560563,0.0,0.73179902,0.0,icsd-245610,"{19: 3, 46: 2, 8: 4}","[8, 19, 46]",84193462,K3Pd2O4
K3SbO4,mp-10543,1.8402,1.79557863,0.0,icsd-280867,"{19: 3, 51: 1, 8: 4}","[8, 19, 51]",84193511,K3Sb1O4
K3(PtO2)2,mp-27566,0.0,1.72641857,0.0,icsd-14158,"{19: 3, 78: 2, 8: 4}","[8, 19, 78]",84193782,K3Pt2O4
K3BiO4,mp-30120,1.1394,0.45764756,0.0,icsd-412393,"{19: 3, 83: 1, 8: 4}","[8, 19, 83]",84193831,K3Bi1O4
K4CrO4,mp-1211715,0.0,2.62366419,0.0,pf-39010,"{19: 4, 24: 1, 8: 4}","[8, 19, 24]",84194241,K4Cr1O4
K4MnO4,mp-1211757,1.4906,1.20898015,0.0,pf-7609,"{19: 4, 25: 1, 8: 4}","[8, 19, 25]",84194251,K4Mn1O4
CsK4GaO4,mp-14429,2.2621,0.59141323,0.0,icsd-48119,"{55: 1, 19: 4, 31: 1, 8: 4}","[8, 19, 31, 55]",84194311551,Cs1K4Ga1O4
K4GeO4,mp-14411,2.7733,0.25982805,0.0,icsd-37271,"{19: 4, 32: 1, 8: 4}","[8, 19, 32]",84194321,K4Ge1O4
K4ZrO4,mp-1211624,2.9118,-0.45226097,0.0,pf-28654,"{19: 4, 40: 1, 8: 4}","[8, 19, 40]",84194401,K4Zr1O4
K4SnO4,mp-7258,2.3423,0.32730076,0.0,icsd-158,"{19: 4, 50: 1, 8: 4}","[8, 19, 50]",84194501,K4Sn1O4
CsK4TlO4,mp-562074,1.5380999999999998,0.75736954,0.0,icsd-74955,"{55: 1, 19: 4, 81: 1, 8: 4}","[8, 19, 55, 81]",84194551811,Cs1K4Tl1O4
K4HfO4,mp-1211649,2.9052,-0.37344733,0.0,pf-16720,"{19: 4, 72: 1, 8: 4}","[8, 19, 72]",84194721,K4Hf1O4
K4IrO4,mp-8429,0.4281999999999999,1.75540016,0.0,icsd-47223,"{19: 4, 77: 1, 8: 4}","[8, 19, 77]",84194771,K4Ir1O4
K4PbO4,mp-22328,1.7002000000000002,0.12769867,0.0,icsd-37268,"{19: 4, 82: 1, 8: 4}","[8, 19, 82]",84194821,K4Pb1O4
K5FeO4,mp-12040,1.7025000000000001,2.48612067,0.0,icsd-415754,"{19: 5, 26: 1, 8: 4}","[8, 19, 26]",84195261,K5Fe1O4
K5InO4,mp-667326,2.2674,0.838227,0.0,icsd-74911,"{19: 5, 49: 1, 8: 4}","[8, 19, 49]",84195491,K5In1O4
K5TlO4,mp-14439,1.4847,0.44533402,0.0,icsd-48169,"{19: 5, 81: 1, 8: 4}","[8, 19, 81]",84195811,K5Tl1O4
K6CdO4,mp-17161,1.5819,0.43150575,0.0,icsd-62053,"{19: 6, 48: 1, 8: 4}","[8, 19, 48]",84196481,K6Cd1O4
KCrPO4F,mp-19498,2.5013,0.89012512,0.0,icsd-39440,"{19: 1, 24: 1, 15: 1, 8: 4, 9: 1}","[8, 9, 15, 19, 24]",8491151191241,K1Cr1P1O4F1
KGaPO4F,mp-9332,4.108099999999999,0.4475015,0.0,icsd-80893,"{19: 1, 31: 1, 15: 1, 8: 4, 9: 1}","[8, 9, 15, 19, 31]",8491151191311,K1Ga1P1O4F1
KFeSO4F,mp-1194644,3.925,4.70923561,0.0,icsd-239011,"{19: 1, 26: 1, 16: 1, 8: 4, 9: 1}","[8, 9, 16, 19, 26]",8491161191261,K1Fe1S1O4F1
K2MnSO4F3,mp-18838,1.1893,-0.41330494,0.0,icsd-415376,"{19: 2, 25: 1, 16: 1, 8: 4, 9: 3}","[8, 9, 16, 19, 25]",8493161192251,K2Mn1S1O4F3
K2SbSO4F3,mp-554643,4.578,-0.06852655,0.0,icsd-201435,"{19: 2, 51: 1, 16: 1, 8: 4, 9: 3}","[8, 9, 16, 19, 51]",8493161192511,K2Sb1S1O4F3
K3Mo2O4F5,mp-1196835,2.5171,0.05835168,0.0,icsd-424783,"{19: 3, 42: 2, 8: 4, 9: 5}","[8, 9, 19, 42]",8495193422,K3Mo2O4F5
K2Sb2S(O2F3)2,mp-557470,4.3549,0.28464472,0.0,icsd-26438,"{19: 2, 51: 2, 16: 1, 8: 4, 9: 6}","[8, 9, 16, 19, 51]",8496161192512,K2Sb2S1O4F6
KRe2O4F7,mp-555490,2.6228000000000002,-2.66944737,0.0,icsd-280012,"{19: 1, 75: 2, 8: 4, 9: 7}","[8, 9, 19, 75]",8497191752,K1Re2O4F7
K4Ti2PO4F9,mp-554016,3.0586,1.74804587,0.0,icsd-173363,"{19: 4, 22: 2, 15: 1, 8: 4, 9: 9}","[8, 9, 15, 19, 22]",8499151194222,K4Ti2P1O4F9
K5U2O4F9,mp-557888,2.3563,-0.97099472,0.0,icsd-60091,"{19: 5, 92: 2, 8: 4, 9: 9}","[8, 9, 19, 92]",8499195922,K5U2O4F9
KNaLaNbO5,mp-10942,3.6387000000000005,2.0341187,0.0,icsd-94743,"{19: 1, 11: 1, 57: 1, 41: 1, 8: 5}","[8, 11, 19, 41, 57]",85111191411571,K1Na1La1Nb1O5
KNaPrNbO5,mp-558317,3.4049,1.2262506,0.0,icsd-420039,"{19: 1, 11: 1, 59: 1, 41: 1, 8: 5}","[8, 11, 19, 41, 59]",85111191411591,K1Na1Pr1Nb1O5
KNaNdNbO5,mp-558212,3.4433999999999996,1.23060014,0.0,icsd-420038,"{19: 1, 11: 1, 60: 1, 41: 1, 8: 5}","[8, 11, 19, 41, 60]",85111191411601,K1Na1Nd1Nb1O5
KNaSmNbO5,mp-556438,3.4945,1.24726295,0.0,icsd-420040,"{19: 1, 11: 1, 62: 1, 41: 1, 8: 5}","[8, 11, 19, 41, 62]",85111191411621,K1Na1Sm1Nb1O5
KNaGdNbO5,mp-13170,2.7742,1.5440525,0.0,icsd-420037,"{19: 1, 11: 1, 64: 1, 41: 1, 8: 5}","[8, 11, 19, 41, 64]",85111191411641,K1Na1Gd1Nb1O5
KNaLaTaO5,mp-861868,3.7150999999999996,2.12347609,0.0,icsd-419855,"{19: 1, 11: 1, 57: 1, 73: 1, 8: 5}","[8, 11, 19, 57, 73]",85111191571731,K1Na1La1Ta1O5
KNaPrTaO5,mp-861944,3.4578999999999995,1.290377,0.0,icsd-419857,"{19: 1, 11: 1, 59: 1, 73: 1, 8: 5}","[8, 11, 19, 59, 73]",85111191591731,K1Na1Pr1Ta1O5
KNaNdTaO5,mp-861607,3.5147,1.36938351,0.0,icsd-419856,"{19: 1, 11: 1, 60: 1, 73: 1, 8: 5}","[8, 11, 19, 60, 73]",85111191601731,K1Na1Nd1Ta1O5
KNaSmTaO5,mp-861957,3.6034000000000006,1.23297981,0.0,icsd-419858,"{19: 1, 11: 1, 62: 1, 73: 1, 8: 5}","[8, 11, 19, 62, 73]",85111191621731,K1Na1Sm1Ta1O5
KNaGdTaO5,mp-863031,2.6982,1.59691027,0.0,icsd-419854,"{19: 1, 11: 1, 64: 1, 73: 1, 8: 5}","[8, 11, 19, 64, 73]",85111191641731,K1Na1Gd1Ta1O5
KMoPClO5,mp-554960,2.0279000000000003,0.74418309,0.0,icsd-50988,"{19: 1, 42: 1, 15: 1, 17: 1, 8: 5}","[8, 15, 17, 19, 42]",85151171191421,K1Mo1P1Cl1O5
KTiPO5,mp-6268,3.0442,0.69754518,0.0,icsd-66570,"{19: 1, 22: 1, 15: 1, 8: 5}","[8, 15, 19, 22]",85151191221,K1Ti1P1O5
KVPO5,mp-559431,3.0694,0.41257947,0.0,icsd-411492,"{19: 1, 23: 1, 15: 1, 8: 5}","[8, 15, 19, 23]",85151191231,K1V1P1O5
KSnPO5,mp-541459,3.0231000000000003,1.60498099,0.0,icsd-68706,"{19: 1, 50: 1, 15: 1, 8: 5}","[8, 15, 19, 50]",85151191501,K1Sn1P1O5
K2Nb3Cl7O5,mp-559790,2.2949,-0.69054445,0.0,icsd-417791,"{19: 2, 41: 3, 17: 7, 8: 5}","[8, 17, 19, 41]",85177192413,K2Nb3Cl7O5
KTiAsO5,mp-6488,3.0608,0.1829464,0.0,icsd-202158,"{19: 1, 22: 1, 33: 1, 8: 5}","[8, 19, 22, 33]",85191221331,K1Ti1As1O5
KVTeO5,mp-18487,3.3432999999999997,0.74448058,0.0,icsd-280885,"{19: 1, 23: 1, 52: 1, 8: 5}","[8, 19, 23, 52]",85191231521,K1V1Te1O5
KGeSbO5,mp-14352,2.717,3.62651815,0.0,icsd-39463,"{19: 1, 32: 1, 51: 1, 8: 5}","[8, 19, 32, 51]",85191321511,K1Ge1Sb1O5
KTaGeO5,mp-14377,3.9009,-0.32306722,0.0,icsd-39585,"{19: 1, 73: 1, 32: 1, 8: 5}","[8, 19, 32, 73]",85191321731,K1Ta1Ge1O5
KSnAsO5,mp-15107,2.1357,1.15586468,0.0,icsd-80976,"{19: 1, 50: 1, 33: 1, 8: 5}","[8, 19, 33, 50]",85191331501,K1Sn1As1O5
KSb3O5,mp-31001,2.9593000000000003,2.66440104,0.0,icsd-28493,"{19: 1, 51: 3, 8: 5}","[8, 19, 51]",85191513,K1Sb3O5
K2Ti2O5,mp-28075,3.2005999999999997,0.35071644,0.0,icsd-36097,"{19: 2, 22: 2, 8: 5}","[8, 19, 22]",85192222,K2Ti2O5
K2Rb4Fe2O5,mp-1211726,1.0154999999999998,1.41153828,0.0,pf-24924,"{19: 2, 37: 4, 26: 2, 8: 5}","[8, 19, 26, 37]",85192262374,K2Rb4Fe2O5
K2Se2O5,mp-559568,3.4243,3.1410792,0.0,icsd-63508,"{19: 2, 34: 2, 8: 5}","[8, 19, 34]",85192342,K2Se2O5
Cs2K2Cd3O5,mp-650532,1.2436,0.81056046,0.0,icsd-60895,"{55: 2, 19: 2, 48: 3, 8: 5}","[8, 19, 48, 55]",85192483552,Cs2K2Cd3O5
Cs2K2TeO5,mp-556400,2.0248999999999997,1.69176401,0.0,icsd-202076,"{55: 2, 19: 2, 52: 1, 8: 5}","[8, 19, 52, 55]",85192521552,Cs2K2Te1O5
K2Te2O5,mp-29129,3.1500000000000004,1.65074367,0.0,icsd-83844,"{19: 2, 52: 2, 8: 5}","[8, 19, 52]",85192522,K2Te2O5
K2Hf2O5,mp-1201301,4.4449,0.89524471,0.0,icsd-180185,"{19: 2, 72: 2, 8: 5}","[8, 19, 72]",85192722,K2Hf2O5
K4Fe2O5,mp-553960,0.7339000000000001,0.91052774,0.0,icsd-154372,"{19: 4, 26: 2, 8: 5}","[8, 19, 26]",85194262,K4Fe2O5
Cs2K4Fe2O5,mp-505040,0.0,2.18116209,0.0,icsd-65942,"{55: 2, 19: 4, 26: 2, 8: 5}","[8, 19, 26, 55]",85194262552,Cs2K4Fe2O5
K4Rb2Co2O5,mp-17522,1.0943000000000003,1.45463318,0.0,icsd-33797,"{19: 4, 37: 2, 27: 2, 8: 5}","[8, 19, 27, 37]",85194272372,K4Rb2Co2O5
K4MoO5,mp-1211821,3.1685000000000003,0.35979865,0.0,pf-25590,"{19: 4, 42: 1, 8: 5}","[8, 19, 42]",85194421,K4Mo1O5
K4WO5,mp-504840,3.2323,0.28867603,0.0,icsd-33294,"{19: 4, 74: 1, 8: 5}","[8, 19, 74]",85194741,K4W1O5
K4UO5,mp-8794,2.1712,1.2054403,0.0,icsd-68361,"{19: 4, 92: 1, 8: 5}","[8, 19, 92]",85194921,K4U1O5
K6Co2O5,mp-510366,0.8292999999999999,1.96053691,0.0,icsd-409792,"{19: 6, 27: 2, 8: 5}","[8, 19, 27]",85196272,K6Co2O5
K6Pb2O5,mp-505187,2.1249000000000002,1.15487078,0.0,icsd-74873,"{19: 6, 82: 2, 8: 5}","[8, 19, 82]",85196822,K6Pb2O5
KNb4O5F,mp-549490,0.0,4.22600837,0.0,icsd-88880,"{19: 1, 41: 4, 8: 5, 9: 1}","[8, 9, 19, 41]",8591191414,K1Nb4O5F1
K2P2O5F2,mp-558480,5.0435,-0.82012528,0.0,icsd-1659,"{19: 2, 15: 2, 8: 5, 9: 2}","[8, 9, 15, 19]",8592152192,K2P2O5F2