formula,material_id,band_gap,efermi,energy_above_hull,database_IDs,comp_atoms,sorted_keys_comp_atoms,comp_number,new_formula
K2LiB(PO4)2,mp-1019782,5.3944,0.35125872,0.0,icsd-424283,"{19: 2, 3: 1, 5: 1, 15: 2, 8: 8}","[3, 5, 8, 15, 19]",315188152192,K2Li1B1P2O8
LiB(SO4)2,mp-1020106,6.3873999999999995,-0.93225024,0.0,icsd-425174,"{3: 1, 5: 1, 16: 2, 8: 8}","[3, 5, 8, 16]",315188162,Li1B1S2O8
LiBF4,mp-12403,8.246,-4.59716786,0.0,icsd-171375,"{3: 1, 5: 1, 9: 4}","[3, 5, 9]",315194,Li1B1F4
Rb2LiNd(BO3)2,mp-1195542,4.255299999999999,0.40058233,0.0,icsd-430190,"{37: 2, 3: 1, 60: 1, 5: 2, 8: 6}","[3, 5, 8, 37, 60]",315286372601,Rb2Li1Nd1B2O6
Cs2LiNd(BO3)2,mp-1194993,4.4761999999999995,5.39944128,0.0,icsd-429483,"{55: 2, 3: 1, 60: 1, 5: 2, 8: 6}","[3, 5, 8, 55, 60]",315286552601,Cs2Li1Nd1B2O6
LiI,mp-570935,4.3818,-0.05169839,0.0,icsd-414242,"{3: 1, 53: 1}","[3, 53]",31531,Li1I1
SrLi(BS2)3,mp-558219,2.91,1.31127932,0.0,icsd-79616,"{38: 1, 3: 1, 5: 3, 16: 6}","[3, 5, 16, 38]",3153166381,Sr1Li1B3S6
BaLi(BS2)3,mp-557892,2.7298,1.04190424,0.0,icsd-82353,"{56: 1, 3: 1, 5: 3, 16: 6}","[3, 5, 16, 56]",3153166561,Ba1Li1B3S6
Li15Ge4,mp-1777,0.0,0.69898196,0.0,icsd-636879,"{3: 15, 32: 4}","[3, 32]",315324,Li15Ge4
LiAuI4,mp-29520,0.7517999999999998,1.69050047,0.0,icsd-406967,"{3: 1, 79: 1, 53: 4}","[3, 53, 79]",31534791,Li1Au1I4
LiCa4(BN2)3,mp-6799,2.1934,2.86373228,0.0,icsd-83419,"{3: 1, 20: 4, 5: 3, 7: 6}","[3, 5, 7, 20]",315376204,Li1Ca4B3N6
Sr4Li(BN2)3,mp-9723,2.0686,2.35822983,0.0,icsd-402173,"{38: 4, 3: 1, 5: 3, 7: 6}","[3, 5, 7, 38]",315376384,Sr4Li1B3N6
LiEu4(BN2)3,mp-1097959,0.0,4.61009097,0.0,icsd-400465,"{3: 1, 63: 4, 5: 3, 7: 6}","[3, 5, 7, 63]",315376634,Li1Eu4B3N6
LiNd6B3O13F2,mp-1185531,4.4538,6.04398683,0.0,icsd-260791,"{3: 1, 60: 6, 5: 3, 8: 13, 9: 2}","[3, 5, 8, 9, 60]",315381392606,Li1Nd6B3O13F2
LiPr6B3O14,mp-1211486,4.3181,1.87512256,0.0,pf-34503,"{3: 1, 59: 6, 5: 3, 8: 14}","[3, 5, 8, 59]",3153814596,Li1Pr6B3O14
LiNd6B3O14,mp-1211241,4.4113,6.17309751,0.0,pf-3032,"{3: 1, 60: 6, 5: 3, 8: 14}","[3, 5, 8, 60]",3153814606,Li1Nd6B3O14
LiSm6B3O14,mp-1211144,4.510800000000001,1.71614544,0.0,pf-13554,"{3: 1, 62: 6, 5: 3, 8: 14}","[3, 5, 8, 62]",3153814626,Li1Sm6B3O14
LiTb6B3O14,mp-1211079,4.7094000000000005,1.86298833,0.0,pf-1732,"{3: 1, 65: 6, 5: 3, 8: 14}","[3, 5, 8, 65]",3153814656,Li1Tb6B3O14
LiDy6B3O14,mp-1211233,4.7578,1.83286476,0.0,pf-12197,"{3: 1, 66: 6, 5: 3, 8: 14}","[3, 5, 8, 66]",3153814666,Li1Dy6B3O14
LiTm6B3O14,mp-1211183,4.8766,6.6058326,0.0,pf-12268,"{3: 1, 69: 6, 5: 3, 8: 14}","[3, 5, 8, 69]",3153814696,Li1Tm6B3O14
Li15Pd4,mp-1197547,0.0,1.17868093,0.0,icsd-642260,"{3: 15, 46: 4}","[3, 46]",315464,Li15Pd4
NaLiB4O7,mp-553926,5.7974,0.69603958,0.0,icsd-245460,"{11: 1, 3: 1, 5: 4, 8: 7}","[3, 5, 8, 11]",315487111,Na1Li1B4O7
KLiB4O7,mp-6648,5.0827,-0.40747904,0.0,icsd-93601,"{19: 1, 3: 1, 5: 4, 8: 7}","[3, 5, 8, 19]",315487191,K1Li1B4O7
RbLiB4O7,mp-6787,4.8696,-0.30008103,0.0,icsd-93602,"{37: 1, 3: 1, 5: 4, 8: 7}","[3, 5, 8, 37]",315487371,Rb1Li1B4O7
Cs3LiPb4,mp-1213704,0.7565,2.97276063,0.0,pf-23480,"{55: 3, 3: 1, 82: 4}","[3, 55, 82]",31553824,Cs3Li1Pb4
Ba2Li(BO2)5,mp-6075,4.951700000000001,0.9678418,0.0,icsd-71875,"{56: 2, 3: 1, 5: 5, 8: 10}","[3, 5, 8, 56]",3155810562,Ba2Li1B5O10
Na2LiB5(PO7)2,mp-1020146,5.2247,-0.10733565,0.0,icsd-291513,"{11: 2, 3: 1, 5: 5, 15: 2, 8: 14}","[3, 5, 8, 11, 15]",3155814112152,Na2Li1B5P2O14
LiSiB6,mp-973391,1.4627,5.24198678,0.0,icsd-418627,"{3: 1, 14: 1, 5: 6}","[3, 5, 14]",3156141,Li1Si1B6
LiB6C,mp-569450,1.3921999999999999,4.52697635,0.0,icsd-415556,"{3: 1, 5: 6, 6: 1}","[3, 5, 6]",315661,Li1B6C1
LiB6O9F,mp-558105,6.4556,-1.09514679,0.0,icsd-420286,"{3: 1, 5: 6, 8: 9, 9: 1}","[3, 5, 8, 9]",31568991,Li1B6O9F1
LiLaBi2,mp-1095149,0.0,5.66400408,0.0,icsd-415728,"{3: 1, 57: 1, 83: 2}","[3, 57, 83]",31571832,Li1La1Bi2
Li15Au4,mp-567395,0.0,1.41842241,0.0,icsd-150973,"{3: 15, 79: 4}","[3, 79]",315794,Li15Au4
SrLi(B3O5)3,mp-18495,5.6482,-0.41263063,0.0,icsd-93015,"{38: 1, 3: 1, 5: 9, 8: 15}","[3, 5, 8, 38]",3159815381,Sr1Li1B9O15
BaLi(B3O5)3,mp-17672,5.7835,-0.40054561,0.0,icsd-93013,"{56: 1, 3: 1, 5: 9, 8: 15}","[3, 5, 8, 56]",3159815561,Ba1Li1B9O15
LiC12,mp-1021323,0.0,5.10006627,0.0,icsd-193440,"{3: 1, 6: 12}","[3, 6]",31612,Li1C12
Sr2LiCBr3N2,mp-569782,3.9725,0.88947419,0.0,icsd-415051,"{38: 2, 3: 1, 6: 1, 35: 3, 7: 2}","[3, 6, 7, 35, 38]",316172353382,Sr2Li1C1Br3N2
LiEu2CBr3N2,mp-568863,0.7450999999999999,3.95957302,0.0,icsd-415050,"{3: 1, 63: 2, 6: 1, 35: 3, 7: 2}","[3, 6, 7, 35, 63]",316172353632,Li1Eu2C1Br3N2
LiEu2CI3N2,mp-1200887,1.0260999999999996,4.70466969,0.0,icsd-170261,"{3: 1, 63: 2, 6: 1, 53: 3, 7: 2}","[3, 6, 7, 53, 63]",316172533632,Li1Eu2C1I3N2
Na3LiY3P3CO15F2,mp-1205167,4.5183,1.47342407,0.0,icsd-189812,"{11: 3, 3: 1, 39: 3, 15: 3, 6: 1, 8: 15, 9: 2}","[3, 6, 8, 9, 11, 15, 39]",316181592113153393,Na3Li1Y3P3C1O15F2
NaLiCO3,mp-559533,4.4629,4.87605625,0.0,icsd-80459,"{11: 1, 3: 1, 6: 1, 8: 3}","[3, 6, 8, 11]",316183111,Na1Li1C1O3
KLiCO3,mp-562137,4.5495,-0.14298189,0.0,icsd-92571,"{19: 1, 3: 1, 6: 1, 8: 3}","[3, 6, 8, 19]",316183191,K1Li1C1O3
LiAl(CN2)2,mp-1204402,3.5404,2.71721115,0.0,icsd-428056,"{3: 1, 13: 1, 6: 2, 7: 4}","[3, 6, 7, 13]",316274131,Li1Al1C2N4
LiIn(CN2)2,mp-1200439,2.8984,2.42000804,0.0,icsd-193181,"{3: 1, 49: 1, 6: 2, 7: 4}","[3, 6, 7, 49]",316274491,Li1In1C2N4
LiLa(CN2)2,mp-1189974,3.2525,3.18731025,0.0,icsd-420440,"{3: 1, 57: 1, 6: 2, 7: 4}","[3, 6, 7, 57]",316274571,Li1La1C2N4
LiPr2C2N4F3,mp-561257,3.6075999999999997,2.08720579,0.0,icsd-419925,"{3: 1, 59: 2, 6: 2, 7: 4, 9: 3}","[3, 6, 7, 9, 59]",31627493592,Li1Pr2C2N4F3
Ba4LiCu(CO5)2,mp-15472,0.9264999999999999,2.26216642,0.0,icsd-401122,"{56: 4, 3: 1, 29: 1, 6: 2, 8: 10}","[3, 6, 8, 29, 56]",3162810291564,Ba4Li1Cu1C2O10
LiLa(CO3)2,mp-1188898,4.1747,2.30841978,0.0,icsd-174533,"{3: 1, 57: 1, 6: 2, 8: 6}","[3, 6, 8, 57]",316286571,Li1La1C2O6
LiEuBi,mp-1095380,0.0,3.63396485,0.0,icsd-428111,"{3: 1, 63: 1, 83: 1}","[3, 63, 83]",31631831,Li1Eu1Bi1
Ba2LiAl(CN2)4,mp-1197768,4.1281,0.9479901,0.0,icsd-426274,"{56: 2, 3: 1, 13: 1, 6: 4, 7: 8}","[3, 6, 7, 13, 56]",316478131562,Ba2Li1Al1C4N8
Cs2LiIr(CN)6,mp-574653,5.4079,-1.13291976,0.0,icsd-9032,"{55: 2, 3: 1, 77: 1, 6: 6, 7: 6}","[3, 6, 7, 55, 77]",316676552771,Cs2Li1Ir1C6N6
Li16Nb2N8O,mp-6031,3.3829000000000002,1.06525818,0.0,icsd-174443,"{3: 16, 41: 2, 7: 8, 8: 1}","[3, 7, 8, 41]",3167881412,Li16Nb2N8O1
Li16Ta2N8O,mp-14871,3.4017,1.08924131,0.0,icsd-71696,"{3: 16, 73: 2, 7: 8, 8: 1}","[3, 7, 8, 73]",3167881732,Li16Ta2N8O1
LiCaN,mp-31468,1.3784999999999998,2.12837861,0.0,icsd-107304,"{3: 1, 20: 1, 7: 1}","[3, 7, 20]",3171201,Li1Ca1N1
LiZnN,mp-7575,0.5187000000000004,3.19062686,0.0,icsd-16790,"{3: 1, 30: 1, 7: 1}","[3, 7, 30]",3171301,Li1Zn1N1
SrLiN,mp-29754,0.2574000000000001,1.74756844,0.0,icsd-87414,"{38: 1, 3: 1, 7: 1}","[3, 7, 38]",3171381,Sr1Li1N1
LiSiNO,mp-6015,5.2543999999999995,3.19439941,0.0,icsd-26411,"{3: 1, 14: 1, 7: 1, 8: 1}","[3, 7, 8, 14]",317181141,Li1Si1N1O1
LiNO3,mp-8180,2.7310000000000003,0.16669918,0.0,icsd-67981,"{3: 1, 7: 1, 8: 3}","[3, 7, 8]",317183,Li1N1O3
LiCaAlN2,mp-1020031,2.7797,4.00270767,0.0,icsd-424911,"{3: 1, 20: 1, 13: 1, 7: 2}","[3, 7, 13, 20]",3172131201,Li1Ca1Al1N2
LiPN2,mp-3524,3.8015999999999996,4.46791909,0.0,icsd-34582,"{3: 1, 15: 1, 7: 2}","[3, 7, 15]",3172151,Li1P1N2
LiCaGaN2,mp-570948,2.1319,3.29506073,0.0,icsd-415411,"{3: 1, 20: 1, 31: 1, 7: 2}","[3, 7, 20, 31]",3172201311,Li1Ca1Ga1N2
Sr2LiCoN2,mp-569001,0.25390000000000024,2.76949114,0.0,icsd-72387,"{38: 2, 3: 1, 27: 1, 7: 2}","[3, 7, 27, 38]",3172271382,Sr2Li1Co1N2
SrLiGaN2,mp-568385,1.8413,3.11779048,0.0,icsd-96224,"{38: 1, 3: 1, 31: 1, 7: 2}","[3, 7, 31, 38]",3172311381,Sr1Li1Ga1N2
LiMoN2,mp-1211056,0.0,4.74729255,0.0,pf-32486,"{3: 1, 42: 1, 7: 2}","[3, 7, 42]",3172421,Li1Mo1N2
LiUN2,mp-31066,0.0,7.53764549,0.0,icsd-98663,"{3: 1, 92: 1, 7: 2}","[3, 7, 92]",3172921,Li1U1N2
LiN3,mp-2659,3.6364,0.57144693,0.0,icsd-34675,"{3: 1, 7: 3}","[3, 7]",3173,Li1N3
LiSi2N3,mp-5853,5.0143,5.43712886,0.0,icsd-34118,"{3: 1, 14: 2, 7: 3}","[3, 7, 14]",3173142,Li1Si2N3
Sr2LiFe2N3,mp-8923,0.0,3.90460045,0.0,icsd-71059,"{38: 2, 3: 1, 26: 2, 7: 3}","[3, 7, 26, 38]",3173262382,Sr2Li1Fe2N3
LiGe2N3,mp-1020059,2.7630000000000003,2.84554903,0.0,icsd-636887,"{3: 1, 32: 2, 7: 3}","[3, 7, 32]",3173322,Li1Ge2N3
Sr2LiTaN3F,mp-979340,2.5637,2.38178617,0.0,icsd-422840,"{38: 2, 3: 1, 73: 1, 7: 3, 9: 1}","[3, 7, 9, 38, 73]",317391382731,Sr2Li1Ta1N3F1
SrLiAl3N4,mp-1020627,2.9731999999999994,4.92632581,0.0,icsd-427067,"{38: 1, 3: 1, 13: 3, 7: 4}","[3, 7, 13, 38]",3174133381,Sr1Li1Al3N4
Sr2LiReN4,mp-10556,1.8098999999999998,2.54563744,0.0,icsd-411454,"{38: 2, 3: 1, 75: 1, 7: 4}","[3, 7, 38, 75]",3174382751,Sr2Li1Re1N4
Ba2LiReN4,mp-10555,1.7902,2.23738378,0.0,icsd-411453,"{56: 2, 3: 1, 75: 1, 7: 4}","[3, 7, 56, 75]",3174562751,Ba2Li1Re1N4
Li17Sn4,mp-573471,0.0,2.31203774,0.0,icsd-240046,"{3: 17, 50: 4}","[3, 50]",317504,Li17Sn4
LiCa3Si2N5,mp-1020056,2.4392000000000005,4.6184928,0.0,icsd-420676,"{3: 1, 20: 3, 14: 2, 7: 5}","[3, 7, 14, 20]",3175142203,Li1Ca3Si2N5
Ba14Na14LiN6,mp-645662,0.0,1.28872615,0.0,icsd-418457,"{56: 14, 11: 14, 3: 1, 7: 6}","[3, 7, 11, 56]",317611145614,Ba14Na14Li1N6
LiIr,mp-279,0.0,4.98204048,0.0,icsd-659856,"{3: 1, 77: 1}","[3, 77]",31771,Li1Ir1
LiIr3,mp-30738,0.0,7.86920398,0.0,icsd-104488,"{3: 1, 77: 3}","[3, 77]",31773,Li1Ir3
Ba4LiMo2N7,mp-6011,1.5654,2.63861912,0.0,icsd-74822,"{56: 4, 3: 1, 42: 2, 7: 7}","[3, 7, 42, 56]",3177422564,Ba4Li1Mo2N7
Ba4LiW2N7,mp-6665,1.763,2.40843436,0.0,icsd-74823,"{56: 4, 3: 1, 74: 2, 7: 7}","[3, 7, 56, 74]",3177564742,Ba4Li1W2N7
LiPt,mp-11807,0.0,4.34538788,0.0,icsd-104777,"{3: 1, 78: 1}","[3, 78]",31781,Li1Pt1
LiNd(PN2)4,mp-1195211,3.5181000000000004,4.90155984,0.0,icsd-429542,"{3: 1, 60: 1, 15: 4, 7: 8}","[3, 7, 15, 60]",3178154601,Li1Nd1P4N8
Li17Pb4,mp-574275,0.0,3.04779063,0.0,icsd-107216,"{3: 17, 82: 4}","[3, 82]",317824,Li17Pb4
LiPt7,mp-30765,0.0,6.59482969,0.0,icsd-642281,"{3: 1, 78: 7}","[3, 78]",31787,Li1Pt7
LiAu,mp-1206794,0.0,3.13650797,0.0,pf-12671,"{3: 1, 79: 1}","[3, 79]",31791,Li1Au1
LiAu3,mp-11248,0.0,4.31900477,0.0,icsd-58525,"{3: 1, 79: 3}","[3, 79]",31793,Li1Au3
LiHg,mp-2012,0.0,2.44279771,0.0,icsd-639075,"{3: 1, 80: 1}","[3, 80]",31801,Li1Hg1
LiHg3,mp-1079267,0.0,2.1407967,0.0,icsd-639074,"{3: 1, 80: 3}","[3, 80]",31803,Li1Hg3
LiTl,mp-934,0.0,5.52485838,0.0,icsd-642402,"{3: 1, 81: 1}","[3, 81]",31811,Li1Tl1
LiTi2(PO4)3,mp-18640,2.4404,1.0977706,0.0,icsd-95979,"{3: 1, 22: 2, 15: 3, 8: 12}","[3, 8, 15, 22]",31812153222,Li1Ti2P3O12
LiZr2(PO4)3,mp-10499,4.2387999999999995,0.14626463,0.0,icsd-91112,"{3: 1, 40: 2, 15: 3, 8: 12}","[3, 8, 15, 40]",31812153402,Li1Zr2P3O12
LiSn2(PO4)3,mp-554917,3.4851,1.3719204,0.0,icsd-83832,"{3: 1, 50: 2, 15: 3, 8: 12}","[3, 8, 15, 50]",31812153502,Li1Sn2P3O12
LiGa(PO3)4,mp-1211020,5.0646,-0.30316446,0.0,pf-16146,"{3: 1, 31: 1, 15: 4, 8: 12}","[3, 8, 15, 31]",31812154311,Li1Ga1P4O12
LiLa(PO3)4,mp-560866,4.9957,1.02561636,0.0,icsd-421741,"{3: 1, 57: 1, 15: 4, 8: 12}","[3, 8, 15, 57]",31812154571,Li1La1P4O12
LiCe(PO3)4,mp-1205078,0.3603000000000005,4.82956872,0.0,icsd-421725,"{3: 1, 58: 1, 15: 4, 8: 12}","[3, 8, 15, 58]",31812154581,Li1Ce1P4O12
LiNd(PO3)4,mp-18711,5.9792000000000005,0.3347443,0.0,icsd-14,"{3: 1, 60: 1, 15: 4, 8: 12}","[3, 8, 15, 60]",31812154601,Li1Nd1P4O12
LiSm(PO3)4,mp-1199215,6.0068,6.42204321,0.0,icsd-248138,"{3: 1, 62: 1, 15: 4, 8: 12}","[3, 8, 15, 62]",31812154621,Li1Sm1P4O12
LiGd(PO3)4,mp-6248,3.4298,0.44150796,0.0,icsd-416442,"{3: 1, 64: 1, 15: 4, 8: 12}","[3, 8, 15, 64]",31812154641,Li1Gd1P4O12
LiTb(PO3)4,mp-18194,6.021999999999999,0.56925426,0.0,icsd-418979,"{3: 1, 65: 1, 15: 4, 8: 12}","[3, 8, 15, 65]",31812154651,Li1Tb1P4O12
K2LiIn(MoO4)3,mp-1197982,3.7750999999999997,-0.84371825,0.0,icsd-423176,"{19: 2, 3: 1, 49: 1, 42: 3, 8: 12}","[3, 8, 19, 42, 49]",31812192423491,K2Li1In1Mo3O12
LiV3(TeO6)2,mp-559938,1.8777999999999997,2.06195658,0.0,icsd-249325,"{3: 1, 23: 3, 52: 2, 8: 12}","[3, 8, 23, 52]",31812233522,Li1V3Te2O12
LiIn(IO3)4,mp-973966,2.6987,2.41278701,0.0,icsd-422056,"{3: 1, 49: 1, 53: 4, 8: 12}","[3, 8, 49, 53]",31812491534,Li1In1I4O12
Ba4Li(SbO4)3,mp-7971,1.4543999999999997,3.43861072,0.0,icsd-202200,"{56: 4, 3: 1, 51: 3, 8: 12}","[3, 8, 51, 56]",31812513564,Ba4Li1Sb3O12
Ba4Li(BiO4)3,mp-1214461,0.5661,3.08621092,0.0,pf-40083,"{56: 4, 3: 1, 83: 3, 8: 12}","[3, 8, 56, 83]",31812564833,Ba4Li1Bi3O12
LiCuO,mp-5127,1.4376000000000002,2.60535056,0.0,icsd-40156,"{3: 1, 29: 1, 8: 1}","[3, 8, 29]",3181291,Li1Cu1O1
LiAu(S2O7)2,mp-1105750,1.9832999999999998,-1.12749101,0.0,icsd-422909,"{3: 1, 79: 1, 16: 4, 8: 14}","[3, 8, 16, 79]",31814164791,Li1Au1S4O14
LiNb3(Bi2O7)2,mp-559052,2.7406,3.28339066,0.0,icsd-391261,"{3: 1, 41: 3, 83: 4, 8: 14}","[3, 8, 41, 83]",31814413834,Li1Nb3Bi4O14
NaLiZr(Si2O5)3,mp-15543,4.928100000000001,0.72346884,0.0,icsd-100631,"{11: 1, 3: 1, 40: 1, 14: 6, 8: 15}","[3, 8, 11, 14, 40]",31815111146401,Na1Li1Zr1Si6O15
Na2LiY(Si2O5)3,mp-14030,4.6025,0.93143827,0.0,icsd-27212,"{11: 2, 3: 1, 39: 1, 14: 6, 8: 15}","[3, 8, 11, 14, 39]",31815112146391,Na2Li1Y1Si6O15
K11LiMn4O16,mp-560465,1.2347000000000001,0.50563106,0.0,icsd-65976,"{19: 11, 3: 1, 25: 4, 8: 16}","[3, 8, 19, 25]",318161911254,K11Li1Mn4O16
KLiNd2(MoO4)4,mp-581225,3.2028,0.76136436,0.0,icsd-94541,"{19: 1, 3: 1, 60: 2, 42: 4, 8: 16}","[3, 8, 19, 42, 60]",31816191424602,K1Li1Nd2Mo4O16
LiU4P3O20,mp-555232,1.58,1.36604403,0.0,icsd-173882,"{3: 1, 92: 4, 15: 3, 8: 20}","[3, 8, 15, 92]",31820153924,Li1U4P3O20
LiPb,mp-2314,0.0,4.96732259,0.0,icsd-104762,"{3: 1, 82: 1}","[3, 82]",31821,Li1Pb1
LiAlO2,mp-8001,6.1183000000000005,4.08666556,0.0,icsd-28288,"{3: 1, 13: 1, 8: 2}","[3, 8, 13]",3182131,Li1Al1O2
KLiMnO2,mp-549671,0.0,2.75006077,0.0,icsd-49021,"{19: 1, 3: 1, 25: 1, 8: 2}","[3, 8, 19, 25]",3182191251,K1Li1Mn1O2
KLiZnO2,mp-551092,2.0766,0.52147685,0.0,icsd-49022,"{19: 1, 3: 1, 30: 1, 8: 2}","[3, 8, 19, 30]",3182191301,K1Li1Zn1O2
LiScO2,mp-5840,3.904,2.00849876,0.0,icsd-31316,"{3: 1, 21: 1, 8: 2}","[3, 8, 21]",3182211,Li1Sc1O2
LiTiO2,mp-38280,0.0,6.39505234,0.0,icsd-164158,"{3: 1, 22: 1, 8: 2}","[3, 8, 22]",3182221,Li1Ti1O2
LiVO2,mp-19340,0.0,5.02913729,0.0,icsd-202540,"{3: 1, 23: 1, 8: 2}","[3, 8, 23]",3182231,Li1V1O2
LiCrO2,mp-18793,3.1156,2.86844198,0.0,icsd-167479,"{3: 1, 24: 1, 8: 2}","[3, 8, 24]",3182241,Li1Cr1O2
LiCoO2,mp-22526,0.6623000000000001,3.95624374,0.0,icsd-182346,"{3: 1, 27: 1, 8: 2}","[3, 8, 27]",3182271,Li1Co1O2
LiCuO2,mp-9158,0.0,2.30504464,0.0,icsd-74978,"{3: 1, 29: 1, 8: 2}","[3, 8, 29]",3182291,Li1Cu1O2
LiGaO2,mp-5854,3.1981,0.3076022,0.0,icsd-93086,"{3: 1, 31: 1, 8: 2}","[3, 8, 31]",3182311,Li1Ga1O2
LiYO2,mp-7020,4.0135,0.85470884,0.0,icsd-45511,"{3: 1, 39: 1, 8: 2}","[3, 8, 39]",3182391,Li1Y1O2
LiNbO2,mp-3924,1.5794999999999995,5.22817792,0.0,icsd-73110,"{3: 1, 41: 1, 8: 2}","[3, 8, 41]",3182411,Li1Nb1O2
KNa2LiTi2Fe2(SiO3)8,mp-510635,2.0557,3.22759223,0.0,icsd-250421,"{19: 1, 11: 2, 3: 1, 22: 2, 26: 2, 14: 8, 8: 24}","[3, 8, 11, 14, 19, 22, 26]",31824112148191222262,K1Na2Li1Ti2Fe2Si8O24
LiRhO2,mp-14115,1.5152999999999999,4.4847718,0.0,icsd-29213,"{3: 1, 45: 1, 8: 2}","[3, 8, 45]",3182451,Li1Rh1O2
LiAg3O2,mp-27227,0.7277999999999998,1.52379379,0.0,icsd-4204,"{3: 1, 47: 3, 8: 2}","[3, 8, 47]",3182473,Li1Ag3O2
LiInO2,mp-5488,1.8142999999999998,3.91786744,0.0,icsd-40665,"{3: 1, 49: 1, 8: 2}","[3, 8, 49]",3182491,Li1In1O2
LiSbO2,mp-1198780,3.0684,4.97694056,0.0,icsd-262075,"{3: 1, 51: 1, 8: 2}","[3, 8, 51]",3182511,Li1Sb1O2
LiGdO2,mp-21332,3.2803999999999998,1.21207779,0.0,icsd-422561,"{3: 1, 64: 1, 8: 2}","[3, 8, 64]",3182641,Li1Gd1O2
LiTbO2,mp-7137,4.5467,0.98844127,0.0,icsd-21013,"{3: 1, 65: 1, 8: 2}","[3, 8, 65]",3182651,Li1Tb1O2
LiDyO2,mp-976726,4.5644,0.88374649,0.0,icsd-422562,"{3: 1, 66: 1, 8: 2}","[3, 8, 66]",3182661,Li1Dy1O2
LiHoO2,mp-12645,4.018199999999999,0.78369619,0.0,icsd-109172,"{3: 1, 67: 1, 8: 2}","[3, 8, 67]",3182671,Li1Ho1O2
LiErO2,mp-10970,4.110799999999999,0.83539114,0.0,icsd-95380,"{3: 1, 68: 1, 8: 2}","[3, 8, 68]",3182681,Li1Er1O2
LiCa9Mn(PO4)7,mp-554324,4.3144,6.90914207,0.0,icsd-94538,"{3: 1, 20: 9, 25: 1, 15: 7, 8: 28}","[3, 8, 15, 20, 25]",31828157209251,Li1Ca9Mn1P7O28
LiRe(OF2)2,mp-554108,3.1439000000000004,-2.26845235,0.0,icsd-280011,"{3: 1, 75: 1, 8: 2, 9: 4}","[3, 8, 9, 75]",318294751,Li1Re1O2F4
Na5Li(Mo3O10)3,mp-1195001,2.9755,0.12773122,0.0,icsd-239798,"{11: 5, 3: 1, 42: 9, 8: 30}","[3, 8, 11, 42]",31830115429,Na5Li1Mo9O30
LiBi,mp-22902,0.0,5.08869359,0.0,icsd-616780,"{3: 1, 83: 1}","[3, 83]",31831,Li1Bi1
LiPO3,mp-29195,5.6512,-0.00481001,0.0,icsd-85714,"{3: 1, 15: 1, 8: 3}","[3, 8, 15]",3183151,Li1P1O3
LiVO3,mp-19373,3.0342000000000002,-0.36655224,0.0,icsd-2899,"{3: 1, 23: 1, 8: 3}","[3, 8, 23]",3183231,Li1V1O3
RbLiZn2O3,mp-18422,1.8536,0.70527781,0.0,icsd-67145,"{37: 1, 3: 1, 30: 2, 8: 3}","[3, 8, 30, 37]",3183302371,Rb1Li1Zn2O3
LiAsO3,mp-9657,3.3857999999999997,2.02586407,0.0,icsd-202862,"{3: 1, 33: 1, 8: 3}","[3, 8, 33]",3183331,Li1As1O3
LiNbO3,mp-3731,3.3358000000000003,0.92710072,0.0,icsd-90745,"{3: 1, 41: 1, 8: 3}","[3, 8, 41]",3183411,Li1Nb1O3
LiSbO3,mp-4995,2.1379000000000006,3.64894126,0.0,icsd-39574,"{3: 1, 51: 1, 8: 3}","[3, 8, 51]",3183511,Li1Sb1O3
LiIO3,mp-23384,3.7255000000000003,1.04372688,0.0,icsd-2642,"{3: 1, 53: 1, 8: 3}","[3, 8, 53]",3183531,Li1I1O3
Rb6LiPr11Se12(Cl4O9)4,mp-645405,3.2871,1.28204196,0.0,icsd-416547,"{37: 6, 3: 1, 59: 11, 34: 12, 17: 16, 8: 36}","[3, 8, 17, 34, 37, 59]",31836171634123765911,Rb6Li1Pr11Se12Cl16O36
Rb6LiNd11Se12(Cl4O9)4,mp-607785,3.2922000000000002,1.24620138,0.0,icsd-417403,"{37: 6, 3: 1, 60: 11, 34: 12, 17: 16, 8: 36}","[3, 8, 17, 34, 37, 60]",31836171634123766011,Rb6Li1Nd11Se12Cl16O36
LiTaO3,mp-3666,3.7003,1.28166655,0.0,icsd-239378,"{3: 1, 73: 1, 8: 3}","[3, 8, 73]",3183731,Li1Ta1O3
LiOsO3,mp-1078358,0.0,4.04711286,0.0,icsd-252433,"{3: 1, 76: 1, 8: 3}","[3, 8, 76]",3183761,Li1Os1O3
LiBiO3,mp-29077,0.1445000000000003,2.6220359,0.0,icsd-82277,"{3: 1, 83: 1, 8: 3}","[3, 8, 83]",3183831,Li1Bi1O3
LiSO3F,mp-7744,5.7916,-1.63374801,0.0,icsd-1384,"{3: 1, 16: 1, 8: 3, 9: 1}","[3, 8, 9, 16]",318391161,Li1S1O3F1
LiUO3,mp-8007,0.44310000000000027,5.54832641,0.0,icsd-28528,"{3: 1, 92: 1, 8: 3}","[3, 8, 92]",3183921,Li1U1O3
LiAlSiO4,mp-18220,5.054499999999999,1.39534482,0.0,icsd-92708,"{3: 1, 13: 1, 14: 1, 8: 4}","[3, 8, 13, 14]",3184131141,Li1Al1Si1O4
LiEu3SiCl3O4,mp-679929,0.4710000000000001,4.73486376,0.0,icsd-400416,"{3: 1, 63: 3, 14: 1, 17: 3, 8: 4}","[3, 8, 14, 17, 63]",3184141173633,Li1Eu3Si1Cl3O4
K3LiSiO4,mp-561474,4.173,0.47959972,0.0,icsd-65291,"{19: 3, 3: 1, 14: 1, 8: 4}","[3, 8, 14, 19]",3184141193,K3Li1Si1O4
LiScSiO4,mp-6224,4.612299999999999,2.0907158,0.0,icsd-77544,"{3: 1, 21: 1, 14: 1, 8: 4}","[3, 8, 14, 21]",3184141211,Li1Sc1Si1O4
LiGaSiO4,mp-18147,4.0502,0.6982494,0.0,icsd-65125,"{3: 1, 31: 1, 14: 1, 8: 4}","[3, 8, 14, 31]",3184141311,Li1Ga1Si1O4
LiYSiO4,mp-558941,5.1083,1.56329719,0.0,icsd-34079,"{3: 1, 39: 1, 14: 1, 8: 4}","[3, 8, 14, 39]",3184141391,Li1Y1Si1O4
LiInSiO4,mp-7205,3.0286999999999997,3.22826975,0.0,icsd-167517,"{3: 1, 49: 1, 14: 1, 8: 4}","[3, 8, 14, 49]",3184141491,Li1In1Si1O4
LiTmSiO4,mp-15066,4.5721,1.45824769,0.0,icsd-75538,"{3: 1, 69: 1, 14: 1, 8: 4}","[3, 8, 14, 69]",3184141691,Li1Tm1Si1O4
LiMnPO4,mp-18997,3.4114999999999998,2.72306986,0.0,icsd-189097,"{3: 1, 25: 1, 15: 1, 8: 4}","[3, 8, 15, 25]",3184151251,Li1Mn1P1O4
LiFePO4,mp-19017,3.9223999999999997,2.60398314,0.0,icsd-181341,"{3: 1, 26: 1, 15: 1, 8: 4}","[3, 8, 15, 26]",3184151261,Li1Fe1P1O4
LiZnPO4,mp-559934,4.13,0.1706398,0.0,icsd-79352,"{3: 1, 30: 1, 15: 1, 8: 4}","[3, 8, 15, 30]",3184151301,Li1Zn1P1O4
LiPPbO4,mp-22694,3.5252,2.45061709,0.0,icsd-39206,"{3: 1, 15: 1, 82: 1, 8: 4}","[3, 8, 15, 82]",3184151821,Li1P1Pb1O4
KLiSO4,mp-6800,5.3423,-0.46812928,0.0,icsd-62981,"{19: 1, 3: 1, 16: 1, 8: 4}","[3, 8, 16, 19]",3184161191,K1Li1S1O4
RbLiSO4,mp-6211,5.3933,-0.51445871,0.0,icsd-174059,"{37: 1, 3: 1, 16: 1, 8: 4}","[3, 8, 16, 37]",3184161371,Rb1Li1S1O4