formula,material_id,band_gap,efermi,energy_above_hull,database_IDs,comp_atoms,sorted_keys_comp_atoms,comp_number,new_formula
CsLiSO4,mp-6726,5.378,0.16921543,0.0,icsd-63181,"{55: 1, 3: 1, 16: 1, 8: 4}","[3, 8, 16, 55]",3184161551,Cs1Li1S1O4
LiClO4,mp-30301,5.7447,-0.27450269,0.0,icsd-413238,"{3: 1, 17: 1, 8: 4}","[3, 8, 17]",3184171,Li1Cl1O4
LiFeMoClO4,mp-561410,2.6161,0.5271384,0.0,icsd-65346,"{3: 1, 26: 1, 42: 1, 17: 1, 8: 4}","[3, 8, 17, 26, 42]",3184171261421,Li1Fe1Mo1Cl1O4
KLiCrO4,mp-555206,2.8533999999999997,-1.36756927,0.0,icsd-65005,"{19: 1, 3: 1, 24: 1, 8: 4}","[3, 8, 19, 24]",3184191241,K1Li1Cr1O4
KLiMoO4,mp-1199453,4.4886,-1.19488063,0.0,icsd-183821,"{19: 1, 3: 1, 42: 1, 8: 4}","[3, 8, 19, 42]",3184191421,K1Li1Mo1O4
KLiWO4,mp-1212005,4.8086,-1.3479283,0.0,pf-1286,"{19: 1, 3: 1, 74: 1, 8: 4}","[3, 8, 19, 74]",3184191741,K1Li1W1O4
K2LiVO4,mp-558369,3.9760999999999997,-0.56789876,0.0,icsd-65945,"{19: 2, 3: 1, 23: 1, 8: 4}","[3, 8, 19, 23]",3184192231,K2Li1V1O4
K3LiIrO4,mp-561288,0.1944999999999999,1.68396109,0.0,icsd-75045,"{19: 3, 3: 1, 77: 1, 8: 4}","[3, 8, 19, 77]",3184193771,K3Li1Ir1O4
LiTi2O4,mp-5670,0.0,5.06885246,0.0,icsd-81329,"{3: 1, 22: 2, 8: 4}","[3, 8, 22]",3184222,Li1Ti2O4
LiMnVO4,mp-19107,1.9636999999999998,1.79498959,0.0,icsd-281581,"{3: 1, 25: 1, 23: 1, 8: 4}","[3, 8, 23, 25]",3184231251,Li1Mn1V1O4
Rb2LiVO4,mp-19123,3.664,-0.58899258,0.0,icsd-40218,"{37: 2, 3: 1, 23: 1, 8: 4}","[3, 8, 23, 37]",3184231372,Rb2Li1V1O4
Cs2LiVO4,mp-541190,3.9955,0.11328535,0.0,icsd-40219,"{55: 2, 3: 1, 23: 1, 8: 4}","[3, 8, 23, 55]",3184231552,Cs2Li1V1O4
RbLiCrO4,mp-18741,2.7641999999999998,-1.53765689,0.0,icsd-72549,"{37: 1, 3: 1, 24: 1, 8: 4}","[3, 8, 24, 37]",3184241371,Rb1Li1Cr1O4
CsLiCrO4,mp-561778,2.7465,-1.11847499,0.0,icsd-63416,"{55: 1, 3: 1, 24: 1, 8: 4}","[3, 8, 24, 55]",3184241551,Cs1Li1Cr1O4
LiMnAsO4,mp-20052,1.6879000000000004,2.47880803,0.0,icsd-245181,"{3: 1, 25: 1, 33: 1, 8: 4}","[3, 8, 25, 33]",3184251331,Li1Mn1As1O4
Cs2LiMnO4,mp-18722,1.5915,1.01353152,0.0,icsd-72361,"{55: 2, 3: 1, 25: 1, 8: 4}","[3, 8, 25, 55]",3184251552,Cs2Li1Mn1O4
LiFeAsO4,mp-510641,2.0793000000000004,2.22837835,0.0,icsd-245182,"{3: 1, 26: 1, 33: 1, 8: 4}","[3, 8, 26, 33]",3184261331,Li1Fe1As1O4
LiZnAsO4,mp-18048,2.9218,-0.17918972,0.0,icsd-86184,"{3: 1, 30: 1, 33: 1, 8: 4}","[3, 8, 30, 33]",3184301331,Li1Zn1As1O4
LiInGeO4,mp-17854,2.2777999999999996,2.24399998,0.0,icsd-62229,"{3: 1, 49: 1, 32: 1, 8: 4}","[3, 8, 32, 49]",3184321491,Li1In1Ge1O4
Rb2LiAsO4,mp-14363,3.5526,-0.19701302,0.0,icsd-36644,"{37: 2, 3: 1, 33: 1, 8: 4}","[3, 8, 33, 37]",3184331372,Rb2Li1As1O4
Cs2LiAsO4,mp-14364,3.7302000000000004,0.47896448,0.0,icsd-36645,"{55: 2, 3: 1, 33: 1, 8: 4}","[3, 8, 33, 55]",3184331552,Cs2Li1As1O4
RbLiMoO4,mp-556209,4.4196,-1.73785096,0.0,icsd-20641,"{37: 1, 3: 1, 42: 1, 8: 4}","[3, 8, 37, 42]",3184371421,Rb1Li1Mo1O4
CsLiMoO4,mp-551629,4.4239999999999995,-1.45920444,0.0,icsd-20805,"{55: 1, 3: 1, 42: 1, 8: 4}","[3, 8, 42, 55]",3184421551,Cs1Li1Mo1O4
LiBi(PdO2)2,mp-559893,0.44599999999999973,3.72913053,0.0,icsd-202930,"{3: 1, 83: 1, 46: 2, 8: 4}","[3, 8, 46, 83]",3184462831,Li1Bi1Pd2O4
LiEu3O4,mp-1098000,0.0,3.71048772,0.0,icsd-15111,"{3: 1, 63: 3, 8: 4}","[3, 8, 63]",3184633,Li1Eu3O4
LiReO4,mp-540946,4.0225,-1.82456005,0.0,icsd-37118,"{3: 1, 75: 1, 8: 4}","[3, 8, 75]",3184751,Li1Re1O4
LiPt3O4,mp-1211055,0.0,4.83385446,0.0,pf-7702,"{3: 1, 78: 3, 8: 4}","[3, 8, 78]",3184783,Li1Pt3O4
LiVPO4F,mp-25423,1.6248000000000002,2.03697223,0.0,icsd-184601,"{3: 1, 23: 1, 15: 1, 8: 4, 9: 1}","[3, 8, 9, 15, 23]",318491151231,Li1V1P1O4F1
LiCuSO4F,mp-1195676,0.43090000000000006,1.82980409,0.0,icsd-252342,"{3: 1, 29: 1, 16: 1, 8: 4, 9: 1}","[3, 8, 9, 16, 29]",318491161291,Li1Cu1S1O4F1
LiZnSO4F,mp-1203440,4.2073,0.38099106,0.0,icsd-261343,"{3: 1, 30: 1, 16: 1, 8: 4, 9: 1}","[3, 8, 9, 16, 30]",318491161301,Li1Zn1S1O4F1
Na3LiWO5,mp-557309,3.8186,1.16420883,0.0,icsd-49027,"{11: 3, 3: 1, 74: 1, 8: 5}","[3, 8, 11, 74]",3185113741,Na3Li1W1O5
LiTaSiO5,mp-560297,3.5713999999999997,1.05815823,0.0,icsd-39648,"{3: 1, 73: 1, 14: 1, 8: 5}","[3, 8, 14, 73]",3185141731,Li1Ta1Si1O5
KLiSi2O5,mp-558102,4.7068,0.71747108,0.0,icsd-82457,"{19: 1, 3: 1, 14: 2, 8: 5}","[3, 8, 14, 19]",3185142191,K1Li1Si2O5
LiTiPO5,mp-6668,3.0591999999999997,1.51261057,0.0,icsd-153522,"{3: 1, 22: 1, 15: 1, 8: 5}","[3, 8, 15, 22]",3185151221,Li1Ti1P1O5
LiVPO5,mp-26963,1.5636,2.46167936,0.0,icsd-291604,"{3: 1, 23: 1, 15: 1, 8: 5}","[3, 8, 15, 23]",3185151231,Li1V1P1O5
LiTiAsO5,mp-6113,3.1654000000000004,0.9299059,0.0,icsd-172581,"{3: 1, 22: 1, 33: 1, 8: 5}","[3, 8, 22, 33]",3185221331,Li1Ti1As1O5
K3Na2LiTeO6,mp-559875,2.2125999999999997,1.64185956,0.0,icsd-65978,"{19: 3, 11: 2, 3: 1, 52: 1, 8: 6}","[3, 8, 11, 19, 52]",3186112193521,K3Na2Li1Te1O6
KLi(PO3)2,mp-559142,5.2914,-0.36858872,0.0,icsd-60069,"{19: 1, 3: 1, 15: 2, 8: 6}","[3, 8, 15, 19]",3186152191,K1Li1P2O6
CsLi(PO3)2,mp-560667,5.2843,0.12592772,0.0,icsd-62514,"{55: 1, 3: 1, 15: 2, 8: 6}","[3, 8, 15, 55]",3186152551,Cs1Li1P2O6
K4LiIO6,mp-558483,2.0858,3.25301935,0.0,icsd-202560,"{19: 4, 3: 1, 53: 1, 8: 6}","[3, 8, 19, 53]",3186194531,K4Li1I1O6
LiCa3RuO6,mp-6342,0.31110000000000015,3.3239542,0.0,icsd-96219,"{3: 1, 20: 3, 44: 1, 8: 6}","[3, 8, 20, 44]",3186203441,Li1Ca3Ru1O6
LiCa3OsO6,mp-1191787,0.21689999999999987,3.99836014,0.0,icsd-248206,"{3: 1, 20: 3, 76: 1, 8: 6}","[3, 8, 20, 76]",3186203761,Li1Ca3Os1O6
LiMn2TeO6,mp-1210977,1.0634000000000006,4.69003262,0.0,pf-28958,"{3: 1, 25: 2, 52: 1, 8: 6}","[3, 8, 25, 52]",3186252521,Li1Mn2Te1O6
LiFe(SeO3)2,mp-558555,2.6596,0.11209862,0.0,icsd-75554,"{3: 1, 26: 1, 34: 2, 8: 6}","[3, 8, 26, 34]",3186261342,Li1Fe1Se2O6
LiLa2FeO6,mp-1078209,0.7546999999999997,5.5780693,0.0,icsd-252554,"{3: 1, 57: 2, 26: 1, 8: 6}","[3, 8, 26, 57]",3186261572,Li1La2Fe1O6
LiGa(SeO3)2,mp-1198930,4.2558,0.22305447,0.0,icsd-250868,"{3: 1, 31: 1, 34: 2, 8: 6}","[3, 8, 31, 34]",3186311342,Li1Ga1Se2O6
LiUAsO6,mp-558943,2.2759,0.71140516,0.0,icsd-246190,"{3: 1, 92: 1, 33: 1, 8: 6}","[3, 8, 33, 92]",3186331921,Li1U1As1O6
Sr2LiReO6,mp-1080625,1.8423999999999998,1.90945298,0.0,icsd-246730,"{38: 2, 3: 1, 75: 1, 8: 6}","[3, 8, 38, 75]",3186382751,Sr2Li1Re1O6
Sr2LiOsO6,mp-1205568,0.0,3.43052224,0.0,pf-30571,"{38: 2, 3: 1, 76: 1, 8: 6}","[3, 8, 38, 76]",3186382761,Sr2Li1Os1O6
Sr3LiNbO6,mp-1190404,3.2076,1.54755229,0.0,icsd-420797,"{38: 3, 3: 1, 41: 1, 8: 6}","[3, 8, 38, 41]",3186383411,Sr3Li1Nb1O6
Sr3LiRuO6,mp-6721,0.399,2.86924183,0.0,icsd-96220,"{38: 3, 3: 1, 44: 1, 8: 6}","[3, 8, 38, 44]",3186383441,Sr3Li1Ru1O6
Sr3LiSbO6,mp-1190151,3.1732,2.55728506,0.0,icsd-420926,"{38: 3, 3: 1, 51: 1, 8: 6}","[3, 8, 38, 51]",3186383511,Sr3Li1Sb1O6
Sr3LiTaO6,mp-1190486,3.7909999999999995,1.75114681,0.0,icsd-380360,"{38: 3, 3: 1, 73: 1, 8: 6}","[3, 8, 38, 73]",3186383731,Sr3Li1Ta1O6
Sr3LiIrO6,mp-6071,0.0,3.15873416,0.0,icsd-96218,"{38: 3, 3: 1, 77: 1, 8: 6}","[3, 8, 38, 77]",3186383771,Sr3Li1Ir1O6
LiMoIO6,mp-558917,2.2334,1.18308338,0.0,icsd-156006,"{3: 1, 42: 1, 53: 1, 8: 6}","[3, 8, 42, 53]",3186421531,Li1Mo1I1O6
LiLa2MoO6,mp-19377,1.5043000000000006,5.95947631,0.0,icsd-203219,"{3: 1, 57: 2, 42: 1, 8: 6}","[3, 8, 42, 57]",3186421572,Li1La2Mo1O6
LiLa2RuO6,mp-6644,0.1880999999999995,5.95357846,0.0,icsd-97487,"{3: 1, 57: 2, 44: 1, 8: 6}","[3, 8, 44, 57]",3186441572,Li1La2Ru1O6
LiPr2RuO6,mp-1211106,0.3014999999999999,3.69885047,0.0,pf-21842,"{3: 1, 59: 2, 44: 1, 8: 6}","[3, 8, 44, 59]",3186441592,Li1Pr2Ru1O6
LiNd2RuO6,mp-1211080,0.4246000000000003,3.86939738,0.0,pf-32283,"{3: 1, 60: 2, 44: 1, 8: 6}","[3, 8, 44, 60]",3186441602,Li1Nd2Ru1O6
LiSm2RuO6,mp-1210954,0.39990000000000014,3.73743224,0.0,pf-861,"{3: 1, 62: 2, 44: 1, 8: 6}","[3, 8, 44, 62]",3186441622,Li1Sm2Ru1O6
LiTb2RuO6,mp-1210924,0.3348,3.71929728,0.0,pf-32369,"{3: 1, 65: 2, 44: 1, 8: 6}","[3, 8, 44, 65]",3186441652,Li1Tb2Ru1O6
Ba2LiTeO6,mp-1214633,0.0,2.40352138,0.0,pf-4168,"{56: 2, 3: 1, 52: 1, 8: 6}","[3, 8, 52, 56]",3186521562,Ba2Li1Te1O6
Ba2LiIO6,mp-1207120,2.0756000000000006,4.85607901,0.0,pf-8210,"{56: 2, 3: 1, 53: 1, 8: 6}","[3, 8, 53, 56]",3186531562,Ba2Li1I1O6
Ba2LiReO6,mp-6270,1.8198000000000003,1.90746988,0.0,icsd-109259,"{56: 2, 3: 1, 75: 1, 8: 6}","[3, 8, 56, 75]",3186562751,Ba2Li1Re1O6
Ba2LiOsO6,mp-10584,0.0,3.31328515,0.0,icsd-412142,"{56: 2, 3: 1, 76: 1, 8: 6}","[3, 8, 56, 76]",3186562761,Ba2Li1Os1O6
LiLa2OsO6,mp-12451,0.3355000000000006,6.48899788,0.0,icsd-416199,"{3: 1, 57: 2, 76: 1, 8: 6}","[3, 8, 57, 76]",3186572761,Li1La2Os1O6
LiLa2IrO6,mp-11992,0.0,6.41363065,0.0,icsd-414605,"{3: 1, 57: 2, 77: 1, 8: 6}","[3, 8, 57, 77]",3186572771,Li1La2Ir1O6
LiPr2OsO6,mp-12449,0.2232000000000003,4.1529716,0.0,icsd-416197,"{3: 1, 59: 2, 76: 1, 8: 6}","[3, 8, 59, 76]",3186592761,Li1Pr2Os1O6
LiPr2IrO6,mp-11906,0.0,3.90785985,0.0,icsd-414149,"{3: 1, 59: 2, 77: 1, 8: 6}","[3, 8, 59, 77]",3186592771,Li1Pr2Ir1O6
LiNd2OsO6,mp-12450,0.0,4.31454259,0.0,icsd-416198,"{3: 1, 60: 2, 76: 1, 8: 6}","[3, 8, 60, 76]",3186602761,Li1Nd2Os1O6
LiNd2IrO6,mp-11905,0.0,3.81008634,0.0,icsd-414150,"{3: 1, 60: 2, 77: 1, 8: 6}","[3, 8, 60, 77]",3186602771,Li1Nd2Ir1O6
LiSm2OsO6,mp-12448,0.3960999999999997,3.98391646,0.0,icsd-416196,"{3: 1, 62: 2, 76: 1, 8: 6}","[3, 8, 62, 76]",3186622761,Li1Sm2Os1O6
LiSm2IrO6,mp-11904,0.0,3.70576999,0.0,icsd-414151,"{3: 1, 62: 2, 77: 1, 8: 6}","[3, 8, 62, 77]",3186622771,Li1Sm2Ir1O6
Na3LiP2O7,mp-1020164,4.8511,0.92332363,0.0,icsd-424375,"{11: 3, 3: 1, 15: 2, 8: 7}","[3, 8, 11, 15]",3187113152,Na3Li1P2O7
KLiZnP2O7,mp-554164,4.2904,0.03178186,0.0,icsd-95960,"{19: 1, 3: 1, 30: 1, 15: 2, 8: 7}","[3, 8, 15, 19, 30]",3187152191301,K1Li1Zn1P2O7
K3LiP2O7,mp-1019794,4.608300000000001,0.18271718,0.0,icsd-424043,"{19: 3, 3: 1, 15: 2, 8: 7}","[3, 8, 15, 19]",3187152193,K3Li1P2O7
LiScP2O7,mp-10517,4.7646,0.52467826,0.0,icsd-91496,"{3: 1, 21: 1, 15: 2, 8: 7}","[3, 8, 15, 21]",3187152211,Li1Sc1P2O7
LiCrP2O7,mp-19103,2.433,1.27975342,0.0,icsd-240965,"{3: 1, 24: 1, 15: 2, 8: 7}","[3, 8, 15, 24]",3187152241,Li1Cr1P2O7
LiFeP2O7,mp-19294,2.5994,0.86015341,0.0,icsd-246398,"{3: 1, 26: 1, 15: 2, 8: 7}","[3, 8, 15, 26]",3187152261,Li1Fe1P2O7
LiMoP2O7,mp-18987,1.5360999999999998,3.4332438,0.0,icsd-83647,"{3: 1, 42: 1, 15: 2, 8: 7}","[3, 8, 15, 42]",3187152421,Li1Mo1P2O7
LiInP2O7,mp-8491,3.9726000000000004,1.30841746,0.0,icsd-60935,"{3: 1, 49: 1, 15: 2, 8: 7}","[3, 8, 15, 49]",3187152491,Li1In1P2O7
CsBaLiP2O7,mp-1019708,4.8877999999999995,0.35398392,0.0,icsd-252185,"{55: 1, 56: 1, 3: 1, 15: 2, 8: 7}","[3, 8, 15, 55, 56]",3187152551561,Cs1Ba1Li1P2O7
K5LiGe2O7,mp-557473,2.9956,-0.18983846,0.0,icsd-73205,"{19: 5, 3: 1, 32: 2, 8: 7}","[3, 8, 19, 32]",3187195322,K5Li1Ge2O7
LiScAs2O7,mp-552663,3.4518999999999997,0.68397707,0.0,icsd-161499,"{3: 1, 21: 1, 33: 2, 8: 7}","[3, 8, 21, 33]",3187211332,Li1Sc1As2O7
LiPr(SO4)2,mp-559719,5.2457,0.70606349,0.0,icsd-200311,"{3: 1, 59: 1, 16: 2, 8: 8}","[3, 8, 16, 59]",3188162591,Li1Pr1S2O8
LiSc(WO4)2,mp-1211126,3.5658,1.38378928,0.0,pf-40137,"{3: 1, 21: 1, 74: 2, 8: 8}","[3, 8, 21, 74]",3188211742,Li1Sc1W2O8
LiGa5O8,mp-28146,2.5222999999999995,2.09842501,0.0,icsd-33716,"{3: 1, 31: 5, 8: 8}","[3, 8, 31]",3188315,Li1Ga5O8
LiY(WO4)2,mp-1191085,3.7774,1.0560994,0.0,icsd-261840,"{3: 1, 39: 1, 74: 2, 8: 8}","[3, 8, 39, 74]",3188391742,Li1Y1W2O8
LiNb3O8,mp-3368,2.7464,1.01808657,0.0,icsd-2921,"{3: 1, 41: 3, 8: 8}","[3, 8, 41]",3188413,Li1Nb3O8
LiIn(WO4)2,mp-1190195,3.3459999999999996,1.94713003,0.0,icsd-423127,"{3: 1, 49: 1, 74: 2, 8: 8}","[3, 8, 49, 74]",3188491742,Li1In1W2O8
LiSb3O8,mp-29892,0.9743999999999993,4.80291412,0.0,icsd-89903,"{3: 1, 51: 3, 8: 8}","[3, 8, 51]",3188513,Li1Sb3O8
LiLa(WO4)2,mp-1210919,3.6807,1.58226115,0.0,pf-31201,"{3: 1, 57: 1, 74: 2, 8: 8}","[3, 8, 57, 74]",3188571742,Li1La1W2O8
LiLa4AuO8,mp-560605,1.6583000000000006,5.28703347,0.0,icsd-410851,"{3: 1, 57: 4, 79: 1, 8: 8}","[3, 8, 57, 79]",3188574791,Li1La4Au1O8
LiPr(WO4)2,mp-18932,3.2598000000000003,0.84828697,0.0,icsd-200520,"{3: 1, 59: 1, 74: 2, 8: 8}","[3, 8, 59, 74]",3188591742,Li1Pr1W2O8
LiNd(WO4)2,mp-1211137,3.6841,0.76399541,0.0,pf-10305,"{3: 1, 60: 1, 74: 2, 8: 8}","[3, 8, 60, 74]",3188601742,Li1Nd1W2O8
LiSm(WO4)2,mp-1211004,3.6314,0.8143901,0.0,pf-29874,"{3: 1, 62: 1, 74: 2, 8: 8}","[3, 8, 62, 74]",3188621742,Li1Sm1W2O8
LiGd(WO4)2,mp-1210920,3.3513,4.3264996,0.0,pf-9685,"{3: 1, 64: 1, 74: 2, 8: 8}","[3, 8, 64, 74]",3188641742,Li1Gd1W2O8
LiDy(WO4)2,mp-1192153,3.7867999999999995,1.04177569,0.0,icsd-261835,"{3: 1, 66: 1, 74: 2, 8: 8}","[3, 8, 66, 74]",3188661742,Li1Dy1W2O8
LiHo(WO4)2,mp-1191729,3.7911,1.03398636,0.0,icsd-261836,"{3: 1, 67: 1, 74: 2, 8: 8}","[3, 8, 67, 74]",3188671742,Li1Ho1W2O8
LiEr(WO4)2,mp-1192111,3.7954,1.06349772,0.0,icsd-261837,"{3: 1, 68: 1, 74: 2, 8: 8}","[3, 8, 68, 74]",3188681742,Li1Er1W2O8
LiTm(WO4)2,mp-1210997,3.7741,4.84807125,0.0,pf-29541,"{3: 1, 69: 1, 74: 2, 8: 8}","[3, 8, 69, 74]",3188691742,Li1Tm1W2O8
LiLu(WO4)2,mp-1190882,3.8008000000000006,1.07496965,0.0,icsd-261839,"{3: 1, 71: 1, 74: 2, 8: 8}","[3, 8, 71, 74]",3188711742,Li1Lu1W2O8
LiTa3O8,mp-7638,3.4495,1.47092128,0.0,icsd-1318,"{3: 1, 73: 3, 8: 8}","[3, 8, 73]",3188733,Li1Ta3O8
LiCu(PO3)3,mp-12185,0.6669,2.32287817,0.0,icsd-2808,"{3: 1, 29: 1, 15: 3, 8: 9}","[3, 8, 15, 29]",3189153291,Li1Cu1P3O9
Ba3LiRu2O9,mp-542122,0.0,3.04036996,0.0,icsd-281126,"{56: 3, 3: 1, 44: 2, 8: 9}","[3, 8, 44, 56]",3189442563,Ba3Li1Ru2O9
Ba3LiOs2O9,mp-542207,0.0,3.51730526,0.0,icsd-281247,"{56: 3, 3: 1, 76: 2, 8: 9}","[3, 8, 56, 76]",3189563762,Ba3Li1Os2O9
Ba3LiIr2O9,mp-554837,0.0,3.3430786,0.0,icsd-413453,"{56: 3, 3: 1, 77: 2, 8: 9}","[3, 8, 56, 77]",3189563772,Ba3Li1Ir2O9
LiF,mp-1138,8.7161,-2.11338606,0.0,icsd-53839,"{3: 1, 9: 1}","[3, 9]",3191,Li1F1
Na3LiTi2F12,mp-1210400,4.7751,-3.28937437,0.0,pf-25465,"{11: 3, 3: 1, 22: 2, 9: 12}","[3, 9, 11, 22]",31912113222,Na3Li1Ti2F12
Cs2LiAl3F12,mp-13634,7.0872,-1.11793924,0.0,icsd-15785,"{55: 2, 3: 1, 13: 3, 9: 12}","[3, 9, 13, 55]",31912133552,Cs2Li1Al3F12
Cs4KLiFe2F12,mp-561000,0.0,-0.17182565,0.0,icsd-78928,"{55: 4, 19: 1, 3: 1, 26: 2, 9: 12}","[3, 9, 19, 26, 55]",31912191262554,Cs4K1Li1Fe2F12
Cs4KLiGa2F12,mp-15079,6.0451,-2.00058989,0.0,icsd-78927,"{55: 4, 19: 1, 3: 1, 31: 2, 9: 12}","[3, 9, 19, 31, 55]",31912191312554,Cs4K1Li1Ga2F12
LiAs(XeF4)3,mp-1197471,2.9661,-4.86793982,0.0,icsd-237658,"{3: 1, 33: 1, 54: 3, 9: 12}","[3, 9, 33, 54]",31912331543,Li1As1Xe3F12
CsLiF2,mp-7594,6.2744,-2.04126101,0.0,icsd-245965,"{55: 1, 3: 1, 9: 2}","[3, 9, 55]",3192551,Cs1Li1F2
LiCoF4,mp-554689,1.9285,-1.90593437,0.0,icsd-202918,"{3: 1, 27: 1, 9: 4}","[3, 9, 27]",3194271,Li1Co1F4
LiYF4,mp-3700,7.8341,-1.97601182,0.0,icsd-96727,"{3: 1, 39: 1, 9: 4}","[3, 9, 39]",3194391,Li1Y1F4
LiInF4,mp-8892,4.0149,-0.60091062,0.0,icsd-66693,"{3: 1, 49: 1, 9: 4}","[3, 9, 49]",3194491,Li1In1F4
LiLuF4,mp-561430,7.754200000000001,-2.00572587,0.0,icsd-152948,"{3: 1, 71: 1, 9: 4}","[3, 9, 71]",3194711,Li1Lu1F4
LiAuF4,mp-554442,1.9808999999999999,-1.08687858,0.0,icsd-33953,"{3: 1, 79: 1, 9: 4}","[3, 9, 79]",3194791,Li1Au1F4
LiBiF4,mp-28567,4.8473,0.36807236,0.0,icsd-65404,"{3: 1, 83: 1, 9: 4}","[3, 9, 83]",3194831,Li1Bi1F4
KLiGdF5,mp-1211585,4.5921,-2.20251536,0.0,pf-10369,"{19: 1, 3: 1, 64: 1, 9: 5}","[3, 9, 19, 64]",3195191641,K1Li1Gd1F5
KLiTbF5,mp-1211435,7.3874,-2.39168502,0.0,pf-41873,"{19: 1, 3: 1, 65: 1, 9: 5}","[3, 9, 19, 65]",3195191651,K1Li1Tb1F5
KLiDyF5,mp-1211461,7.3887,-2.4108396,0.0,pf-31422,"{19: 1, 3: 1, 66: 1, 9: 5}","[3, 9, 19, 66]",3195191661,K1Li1Dy1F5
KLiHoF5,mp-1211494,7.378,-2.44613055,0.0,pf-20939,"{19: 1, 3: 1, 67: 1, 9: 5}","[3, 9, 19, 67]",3195191671,K1Li1Ho1F5
KLiLuF5,mp-1211480,7.4932,-2.31197744,0.0,pf-20858,"{19: 1, 3: 1, 71: 1, 9: 5}","[3, 9, 19, 71]",3195191711,K1Li1Lu1F5
LiCeF5,mp-1195868,2.2896,-1.30940816,0.0,icsd-426215,"{3: 1, 58: 1, 9: 5}","[3, 9, 58]",3195581,Li1Ce1F5
LiThF5,mp-1196169,6.5143,-1.37528962,0.0,icsd-426220,"{3: 1, 90: 1, 9: 5}","[3, 9, 90]",3195901,Li1Th1F5
LiUF5,mp-27403,0.0,3.53166532,0.0,icsd-14326,"{3: 1, 92: 1, 9: 5}","[3, 9, 92]",3195921,Li1U1F5
K2LiAlF6,mp-556996,7.2639,-1.66346259,0.0,icsd-27672,"{19: 2, 3: 1, 13: 1, 9: 6}","[3, 9, 13, 19]",3196131192,K2Li1Al1F6
LiCaAlF6,mp-6134,7.6448,-1.56207559,0.0,icsd-39700,"{3: 1, 20: 1, 13: 1, 9: 6}","[3, 9, 13, 20]",3196131201,Li1Ca1Al1F6
SrLiAlF6,mp-6591,7.3154,-1.93181731,0.0,icsd-150334,"{38: 1, 3: 1, 13: 1, 9: 6}","[3, 9, 13, 38]",3196131381,Sr1Li1Al1F6
Cs2LiAlF6,mp-1206808,6.8832,-1.82513675,0.0,pf-1517,"{55: 2, 3: 1, 13: 1, 9: 6}","[3, 9, 13, 55]",3196131552,Cs2Li1Al1F6
BaLiAlF6,mp-543044,7.3161000000000005,-1.3976455,0.0,icsd-260011,"{56: 1, 3: 1, 13: 1, 9: 6}","[3, 9, 13, 56]",3196131561,Ba1Li1Al1F6
LiPF6,mp-9143,7.5394,-2.51130773,0.0,icsd-74830,"{3: 1, 15: 1, 9: 6}","[3, 9, 15]",3196151,Li1P1F6
K2LiCrF6,mp-1111927,4.1644,2.88737754,0.0,pf-6451,"{19: 2, 3: 1, 24: 1, 9: 6}","[3, 9, 19, 24]",3196192241,K2Li1Cr1F6
K2LiCoF6,mp-1111150,0.0,-0.45485693,0.0,pf-20230,"{19: 2, 3: 1, 27: 1, 9: 6}","[3, 9, 19, 27]",3196192271,K2Li1Co1F6
K2LiCuF6,mp-1207213,0.9248000000000001,-0.77199652,0.0,pf-17012,"{19: 2, 3: 1, 29: 1, 9: 6}","[3, 9, 19, 29]",3196192291,K2Li1Cu1F6
K2LiGaF6,mp-1111112,6.1271,-2.35916667,0.0,pf-30631,"{19: 2, 3: 1, 31: 1, 9: 6}","[3, 9, 19, 31]",3196192311,K2Li1Ga1F6
K2LiInF6,mp-1111671,5.2984,-1.82583333,0.0,pf-41057,"{19: 2, 3: 1, 49: 1, 9: 6}","[3, 9, 19, 49]",3196192491,K2Li1In1F6
LiCaVF6,mp-1211094,2.6309,0.00859792,0.0,pf-24279,"{3: 1, 20: 1, 23: 1, 9: 6}","[3, 9, 20, 23]",3196201231,Li1Ca1V1F6
LiCaCrF6,mp-556792,4.0967,-1.04716067,0.0,icsd-73985,"{3: 1, 20: 1, 24: 1, 9: 6}","[3, 9, 20, 24]",3196201241,Li1Ca1Cr1F6
LiCaFeF6,mp-1211093,4.1719,1.99441566,0.0,pf-3395,"{3: 1, 20: 1, 26: 1, 9: 6}","[3, 9, 20, 26]",3196201261,Li1Ca1Fe1F6
LiCaGaF6,mp-12829,6.4003,-2.33064527,0.0,icsd-152300,"{3: 1, 20: 1, 31: 1, 9: 6}","[3, 9, 20, 31]",3196201311,Li1Ca1Ga1F6
SrLiVF6,mp-1208625,2.6226,2.24920353,0.0,pf-34770,"{38: 1, 3: 1, 23: 1, 9: 6}","[3, 9, 23, 38]",3196231381,Sr1Li1V1F6
SrLiCrF6,mp-1208634,4.3642,2.81283977,0.0,pf-6564,"{38: 1, 3: 1, 24: 1, 9: 6}","[3, 9, 24, 38]",3196241381,Sr1Li1Cr1F6
LiCrCdF6,mp-1211098,3.9378,2.40602247,0.0,pf-3316,"{3: 1, 24: 1, 48: 1, 9: 6}","[3, 9, 24, 48]",3196241481,Li1Cr1Cd1F6
Cs2LiCrF6,mp-1206440,4.3359000000000005,-1.19883146,0.0,pf-11962,"{55: 2, 3: 1, 24: 1, 9: 6}","[3, 9, 24, 55]",3196241552,Cs2Li1Cr1F6
BaLiCrF6,mp-560949,2.1413,0.94211,0.0,icsd-6042,"{56: 1, 3: 1, 24: 1, 9: 6}","[3, 9, 24, 56]",3196241561,Ba1Li1Cr1F6
LiMnFeF6,mp-22200,2.4344,-0.43321394,0.0,icsd-35232,"{3: 1, 25: 1, 26: 1, 9: 6}","[3, 9, 25, 26]",3196251261,Li1Mn1Fe1F6
Rb2LiFeF6,mp-22663,3.6975999999999996,-1.88334208,0.0,icsd-16400,"{37: 2, 3: 1, 26: 1, 9: 6}","[3, 9, 26, 37]",3196261372,Rb2Li1Fe1F6
SrLiFeF6,mp-559277,4.1239,-2.05314493,0.0,icsd-32729,"{38: 1, 3: 1, 26: 1, 9: 6}","[3, 9, 26, 38]",3196261381,Sr1Li1Fe1F6
LiCdFeF6,mp-1211087,3.7992,1.68085198,0.0,pf-34843,"{3: 1, 48: 1, 26: 1, 9: 6}","[3, 9, 26, 48]",3196261481,Li1Cd1Fe1F6
LiFe2F6,mp-557403,1.7058,0.28057056,0.0,icsd-202705,"{3: 1, 26: 2, 9: 6}","[3, 9, 26]",3196262,Li1Fe2F6
Rb2LiGaF6,mp-14638,6.1124,-2.38866926,0.0,icsd-50468,"{37: 2, 3: 1, 31: 1, 9: 6}","[3, 9, 31, 37]",3196311372,Rb2Li1Ga1F6
SrLiGaF6,mp-1208619,6.3568999999999996,3.61073732,0.0,pf-34708,"{38: 1, 3: 1, 31: 1, 9: 6}","[3, 9, 31, 38]",3196311381,Sr1Li1Ga1F6
Cs2LiGaF6,mp-6654,6.1433,-2.38303828,0.0,icsd-9004,"{55: 2, 3: 1, 31: 1, 9: 6}","[3, 9, 31, 55]",3196311552,Cs2Li1Ga1F6
LiAsF6,mp-9144,5.1404,-3.13908986,0.0,icsd-74831,"{3: 1, 33: 1, 9: 6}","[3, 9, 33]",3196331,Li1As1F6
LiNbF6,mp-1078799,4.7969,-3.96425296,0.0,icsd-165202,"{3: 1, 41: 1, 9: 6}","[3, 9, 41]",3196411,Li1Nb1F6
LiRuF6,mp-1078834,0.9999,-1.80409823,0.0,icsd-165203,"{3: 1, 44: 1, 9: 6}","[3, 9, 44]",3196441,Li1Ru1F6
LiRhF6,mp-11171,0.0,-2.06744738,0.0,icsd-165204,"{3: 1, 45: 1, 9: 6}","[3, 9, 45]",3196451,Li1Rh1F6
LiSbF6,mp-3980,4.933400000000001,-2.76114485,0.0,icsd-23924,"{3: 1, 51: 1, 9: 6}","[3, 9, 51]",3196511,Li1Sb1F6
LiTaF6,mp-1080679,5.9681,-3.99670268,0.0,icsd-165205,"{3: 1, 73: 1, 9: 6}","[3, 9, 73]",3196731,Li1Ta1F6