formula,material_id,band_gap,efermi,energy_above_hull,database_IDs,comp_atoms,sorted_keys_comp_atoms,comp_number,new_formula
Cs2Li2GeO4,mp-8313,3.4743999999999997,0.77759562,0.0,icsd-36532,"{55: 2, 3: 2, 32: 1, 8: 4}","[3, 8, 32, 55]",3284321552,Cs2Li2Ge1O4
Li2SeO4,mp-4855,3.8324,-0.94785075,0.0,icsd-67234,"{3: 2, 34: 1, 8: 4}","[3, 8, 34]",3284341,Li2Se1O4
Li2MoO4,mp-18050,3.8713,-1.32687895,0.0,icsd-94489,"{3: 2, 42: 1, 8: 4}","[3, 8, 42]",3284421,Li2Mo1O4
Li2TeO4,mp-13843,2.2670999999999997,2.15253876,0.0,icsd-1485,"{3: 2, 52: 1, 8: 4}","[3, 8, 52]",3284521,Li2Te1O4
Li2WO4,mp-19260,3.7185000000000006,0.74231694,0.0,icsd-1044,"{3: 2, 74: 1, 8: 4}","[3, 8, 74]",3284741,Li2W1O4
Li2UO4,mp-9607,2.1005,2.37647956,0.0,icsd-200297,"{3: 2, 92: 1, 8: 4}","[3, 8, 92]",3284921,Li2U1O4
Li2TiSiO5,mp-6332,3.2152999999999996,1.89757356,0.0,icsd-87596,"{3: 2, 22: 1, 14: 1, 8: 5}","[3, 8, 14, 22]",3285141221,Li2Ti1Si1O5
Li2VSiO5,mp-18860,2.3621,2.45856119,0.0,icsd-417280,"{3: 2, 23: 1, 14: 1, 8: 5}","[3, 8, 14, 23]",3285141231,Li2V1Si1O5
Li2Si2O5,mp-4117,5.154,0.73310869,0.0,icsd-78562,"{3: 2, 14: 2, 8: 5}","[3, 8, 14]",3285142,Li2Si2O5
Li2Te2O5,mp-27811,3.2521000000000004,2.44945581,0.0,icsd-26451,"{3: 2, 52: 2, 8: 5}","[3, 8, 52]",3285522,Li2Te2O5
Li2SnTeO6,mp-8673,2.0439000000000003,3.64841144,0.0,icsd-40265,"{3: 2, 50: 1, 52: 1, 8: 6}","[3, 8, 50, 52]",3286501521,Li2Sn1Te1O6
Li2MnP2O7,mp-1203394,4.3532,5.9667762,0.0,icsd-247985,"{3: 2, 25: 1, 15: 2, 8: 7}","[3, 8, 15, 25]",3287152251,Li2Mn1P2O7
Li2CuP2O7,mp-6412,0.0,1.43515676,0.0,icsd-160321,"{3: 2, 29: 1, 15: 2, 8: 7}","[3, 8, 15, 29]",3287152291,Li2Cu1P2O7
Li2S2O7,mp-1020013,5.5360000000000005,-0.21997761,0.0,icsd-188009,"{3: 2, 16: 2, 8: 7}","[3, 8, 16]",3287162,Li2S2O7
Li2CaTa2O7,mp-1194523,2.8142,4.19092367,0.0,icsd-291610,"{3: 2, 20: 1, 73: 2, 8: 7}","[3, 8, 20, 73]",3287201732,Li2Ca1Ta2O7
Li2Se2O7,mp-1194726,2.9444999999999997,-1.11869892,0.0,icsd-428746,"{3: 2, 34: 2, 8: 7}","[3, 8, 34]",3287342,Li2Se2O7
SrLi2Ta2O7,mp-558054,2.2704000000000004,1.65277789,0.0,icsd-246277,"{38: 1, 3: 2, 73: 2, 8: 7}","[3, 8, 38, 73]",3287381732,Sr1Li2Ta2O7
KNaLi2(SO4)2,mp-14484,5.2970999999999995,-0.02781609,0.0,icsd-60824,"{19: 1, 11: 1, 3: 2, 16: 2, 8: 8}","[3, 8, 11, 16, 19]",3288111162191,K1Na1Li2S2O8
Li2Mn(SO4)2,mp-1193172,3.5794000000000006,0.89647613,0.0,icsd-250898,"{3: 2, 25: 1, 16: 2, 8: 8}","[3, 8, 16, 25]",3288162251,Li2Mn1S2O8
Li2Co(SO4)2,mp-1194281,3.2144000000000004,0.44922093,0.0,icsd-250897,"{3: 2, 27: 1, 16: 2, 8: 8}","[3, 8, 16, 27]",3288162271,Li2Co1S2O8
BaLi2MnV2O8,mp-1103771,2.7197000000000005,1.37688755,0.0,icsd-429825,"{56: 1, 3: 2, 25: 1, 23: 2, 8: 8}","[3, 8, 23, 25, 56]",3288232251561,Ba1Li2Mn1V2O8
Li2Mn3ZnO8,mp-704943,1.2898999999999998,1.57007357,0.0,icsd-26995,"{3: 2, 25: 3, 30: 1, 8: 8}","[3, 8, 25, 30]",3288253301,Li2Mn3Zn1O8
Li2ZnSn3O8,mp-555965,1.9407,5.36169647,0.0,icsd-59772,"{3: 2, 30: 1, 50: 3, 8: 8}","[3, 8, 30, 50]",3288301503,Li2Zn1Sn3O8
Li2Th(AsO4)2,mp-1194965,3.9494000000000002,0.91853992,0.0,icsd-251544,"{3: 2, 90: 1, 33: 2, 8: 8}","[3, 8, 33, 90]",3288332901,Li2Th1As2O8
RbLi2(IO3)3,mp-23626,3.7571000000000003,0.93236848,0.0,icsd-14045,"{37: 1, 3: 2, 53: 3, 8: 9}","[3, 8, 37, 53]",3289371533,Rb1Li2I3O9
K5Li2PrF10,mp-1196988,6.4766,4.0443746,0.0,icsd-248019,"{19: 5, 3: 2, 59: 1, 9: 10}","[3, 9, 19, 59]",32910195591,K5Li2Pr1F10
K5Li2NdF10,mp-557798,6.4521999999999995,-2.29274491,0.0,icsd-100166,"{19: 5, 3: 2, 60: 1, 9: 10}","[3, 9, 19, 60]",32910195601,K5Li2Nd1F10
Li2MnF5,mp-556229,1.8414,-0.9442579,0.0,icsd-202394,"{3: 2, 25: 1, 9: 5}","[3, 9, 25]",3295251,Li2Mn1F5
Li2SiF6,mp-1193269,8.0844,-1.81119678,0.0,icsd-425923,"{3: 2, 14: 1, 9: 6}","[3, 9, 14]",3296141,Li2Si1F6
Li2TiF6,mp-7603,4.1597,-2.43004376,0.0,icsd-18313,"{3: 2, 22: 1, 9: 6}","[3, 9, 22]",3296221,Li2Ti1F6
Li2VF6,mp-753861,2.1121,-1.20372569,0.0,icsd-290252,"{3: 2, 23: 1, 9: 6}","[3, 9, 23]",3296231,Li2V1F6
Li2CrF6,mp-555112,1.2088999999999999,-1.83876026,0.0,icsd-418676,"{3: 2, 24: 1, 9: 6}","[3, 9, 24]",3296241,Li2Cr1F6
Li2GeF6,mp-7791,5.5194,-2.39751646,0.0,icsd-23406,"{3: 2, 32: 1, 9: 6}","[3, 9, 32]",3296321,Li2Ge1F6
Li2ZrF6,mp-542219,6.0773,-1.99811327,0.0,icsd-409667,"{3: 2, 40: 1, 9: 6}","[3, 9, 40]",3296401,Li2Zr1F6
Li2MoF6,mp-22439,2.0388,-0.40606103,0.0,icsd-74565,"{3: 2, 42: 1, 9: 6}","[3, 9, 42]",3296421,Li2Mo1F6
Li2RuF6,mp-976955,0.0398,0.34432287,0.0,icsd-165210,"{3: 2, 44: 1, 9: 6}","[3, 9, 44]",3296441,Li2Ru1F6
Li2RhF6,mp-7661,0.0,-0.78665288,0.0,icsd-165211,"{3: 2, 45: 1, 9: 6}","[3, 9, 45]",3296451,Li2Rh1F6
Li2PdF6,mp-13985,1.6748999999999998,-1.88532539,0.0,icsd-165212,"{3: 2, 46: 1, 9: 6}","[3, 9, 46]",3296461,Li2Pd1F6
Li2SnF6,mp-1205739,5.0089,-1.23399657,0.0,pf-32758,"{3: 2, 50: 1, 9: 6}","[3, 9, 50]",3296501,Li2Sn1F6
Li2PtF6,mp-13986,2.3577,-0.94079848,0.0,icsd-165216,"{3: 2, 78: 1, 9: 6}","[3, 9, 78]",3296781,Li2Pt1F6
Li2CaHfF8,mp-16577,6.9952000000000005,-1.69035026,0.0,icsd-95248,"{3: 2, 20: 1, 72: 1, 9: 8}","[3, 9, 20, 72]",3298201721,Li2Ca1Hf1F8
Na5Li3(TiS4)2,mp-554395,1.9652,1.23434006,0.0,icsd-391258,"{11: 5, 3: 3, 22: 2, 16: 8}","[3, 11, 16, 22]",33115168222,Na5Li3Ti2S8
Li3Al2,mp-16506,0.0,4.3607966,0.0,icsd-57951,"{3: 3, 13: 2}","[3, 13]",33132,Li3Al2
Li3P,mp-736,0.6996000000000002,1.72650997,0.0,icsd-26880,"{3: 3, 15: 1}","[3, 15]",33151,Li3P1
Li3P7,mp-28336,1.7927,3.39114777,0.0,icsd-60774,"{3: 3, 15: 7}","[3, 15]",33157,Li3P7
Li3AuS2,mp-15999,2.0985,1.88519563,0.0,icsd-280535,"{3: 3, 79: 1, 16: 2}","[3, 16, 79]",33162791,Li3Au1S2
Li3AsS3,mp-28471,2.2848999999999995,1.59097423,0.0,icsd-424835,"{3: 3, 33: 1, 16: 3}","[3, 16, 33]",33163331,Li3As1S3
Li3SbS3,mp-1194339,2.4016,4.66958921,0.0,icsd-424834,"{3: 3, 51: 1, 16: 3}","[3, 16, 51]",33163511,Li3Sb1S3
Li3(ZnSn2)2,mp-1188187,0.0,4.45570025,0.0,icsd-237636,"{3: 3, 30: 2, 50: 4}","[3, 30, 50]",33302504,Li3Zn2Sn4
Li3Ga2,mp-9568,0.0,3.25826807,0.0,icsd-659760,"{3: 3, 31: 2}","[3, 31]",33312,Li3Ga2
Li3As,mp-757,0.6364999999999998,1.37594068,0.0,icsd-610783,"{3: 3, 33: 1}","[3, 33]",33331,Li3As1
Li3LaAs2,mp-1018766,0.5023,4.18853491,0.0,icsd-427432,"{3: 3, 57: 1, 33: 2}","[3, 33, 57]",33332571,Li3La1As2
Li3YSb2,mp-1206280,0.0,4.59314833,0.0,pf-12410,"{3: 3, 39: 1, 51: 2}","[3, 39, 51]",33391512,Li3Y1Sb2
Li3YBi2,mp-1018782,0.0,4.18216717,0.0,icsd-616795,"{3: 3, 39: 1, 83: 2}","[3, 39, 83]",33391832,Li3Y1Bi2
Li3In2,mp-21293,0.0,5.35634933,0.0,icsd-659829,"{3: 3, 49: 2}","[3, 49]",33492,Li3In2
Li3Sb,mp-7955,0.4833000000000003,2.34408978,0.0,icsd-26879,"{3: 3, 51: 1}","[3, 51]",33511,Li3Sb1
Li3BS3,mp-5614,3.0495,0.90904378,0.0,icsd-380104,"{3: 3, 5: 1, 16: 3}","[3, 5, 16]",3351163,Li3B1S3
Li3B11O18,mp-1020014,5.5447,-0.35782223,0.0,icsd-427426,"{3: 3, 5: 11, 8: 18}","[3, 5, 8]",33511818,Li3B11O18
Li3CeSb2,mp-1018761,0.0,5.29573952,0.0,icsd-191297,"{3: 3, 58: 1, 51: 2}","[3, 51, 58]",33512581,Li3Ce1Sb2
Li3PrSb2,mp-1018779,0.0,4.3523527,0.0,icsd-191298,"{3: 3, 59: 1, 51: 2}","[3, 51, 59]",33512591,Li3Pr1Sb2
Li3NdSb2,mp-1018769,0.0,4.34063573,0.0,icsd-191299,"{3: 3, 60: 1, 51: 2}","[3, 51, 60]",33512601,Li3Nd1Sb2
Li3SmSb2,mp-1018781,0.0,4.40399097,0.0,icsd-191300,"{3: 3, 62: 1, 51: 2}","[3, 51, 62]",33512621,Li3Sm1Sb2
Li3DySb2,mp-1018763,0.0,4.61920729,0.0,icsd-191301,"{3: 3, 66: 1, 51: 2}","[3, 51, 66]",33512661,Li3Dy1Sb2
Li3HoSb2,mp-1018764,0.0,4.6206281,0.0,icsd-191302,"{3: 3, 67: 1, 51: 2}","[3, 51, 67]",33512671,Li3Ho1Sb2
Li3BN2,mp-5001,3.2057999999999995,1.02868686,0.0,icsd-41022,"{3: 3, 5: 1, 7: 2}","[3, 5, 7]",335172,Li3B1N2
K2Li3B(P2O7)2,mp-1019778,5.5903,0.47693747,0.0,icsd-424282,"{19: 2, 3: 3, 5: 1, 15: 4, 8: 14}","[3, 5, 8, 15, 19]",3351814154192,K2Li3B1P4O14
Rb2Li3B(P2O7)2,mp-1020705,5.5484,0.45115031,0.0,icsd-424352,"{37: 2, 3: 3, 5: 1, 15: 4, 8: 14}","[3, 5, 8, 15, 37]",3351814154372,Rb2Li3B1P4O14
Li3BO3,mp-27275,5.1473,0.24049652,0.0,icsd-9105,"{3: 3, 5: 1, 8: 3}","[3, 5, 8]",335183,Li3B1O3
Li3Gd(BO3)2,mp-559706,2.9198,3.68852379,0.0,icsd-94356,"{3: 3, 64: 1, 5: 2, 8: 6}","[3, 5, 8, 64]",335286641,Li3Gd1B2O6
Cs2Sr2Li3B3(PO4)6,mp-1019609,5.6029,0.89373506,0.0,icsd-239630,"{55: 2, 38: 2, 3: 3, 5: 3, 15: 6, 8: 24}","[3, 5, 8, 15, 38, 55]",3353824156382552,Cs2Sr2Li3B3P6O24
Cs2Li3B3P6(PbO12)2,mp-1196318,5.0959,1.77440524,0.0,icsd-239629,"{55: 2, 3: 3, 5: 3, 15: 6, 82: 2, 8: 24}","[3, 5, 8, 15, 55, 82]",3353824156552822,Cs2Li3B3P6Pb2O24
Li3Pr2(BO3)3,mp-13772,4.486,1.91002415,0.0,icsd-20217,"{3: 3, 59: 2, 5: 3, 8: 9}","[3, 5, 8, 59]",335389592,Li3Pr2B3O9
BaNaLi3(BO2)6,mp-1019555,5.2185,0.60497691,0.0,icsd-423774,"{56: 1, 11: 1, 3: 3, 5: 6, 8: 12}","[3, 5, 8, 11, 56]",3356812111561,Ba1Na1Li3B6O12
Li3LaBi2,mp-1018768,0.1578999999999997,4.68304549,0.0,icsd-616769,"{3: 3, 57: 1, 83: 2}","[3, 57, 83]",33571832,Li3La1Bi2
Li3B7O12,mp-16828,5.6047,0.26899749,0.0,icsd-68475,"{3: 3, 5: 7, 8: 12}","[3, 5, 8]",3357812,Li3B7O12
K9Li3Nd3(BO3)7,mp-1195894,3.7614,4.26011774,0.0,icsd-429855,"{19: 9, 3: 3, 60: 3, 5: 7, 8: 21}","[3, 5, 8, 19, 60]",3357821199603,K9Li3Nd3B7O21
Li3CeBi2,mp-1018762,0.0,4.74959477,0.0,icsd-192949,"{3: 3, 58: 1, 83: 2}","[3, 58, 83]",33581832,Li3Ce1Bi2
Li3PrBi2,mp-1018770,0.0,3.95974913,0.0,icsd-192950,"{3: 3, 59: 1, 83: 2}","[3, 59, 83]",33591832,Li3Pr1Bi2
Li3SmBi2,mp-1018780,0.0,4.04931154,0.0,icsd-192951,"{3: 3, 62: 1, 83: 2}","[3, 62, 83]",33621832,Li3Sm1Bi2
Li3GdBi2,mp-1077469,0.0,3.91844731,0.0,icsd-192952,"{3: 3, 64: 1, 83: 2}","[3, 64, 83]",33641832,Li3Gd1Bi2
Li3N,mp-2251,0.9840000000000001,0.3339454,0.0,icsd-156898,"{3: 3, 7: 1}","[3, 7]",3371,Li3N1
Li3AlN2,mp-13944,2.9371,3.00129695,0.0,icsd-25565,"{3: 3, 13: 1, 7: 2}","[3, 7, 13]",3372131,Li3Al1N2
Li3ScN2,mp-542435,2.2440999999999995,1.79396778,0.0,icsd-98140,"{3: 3, 21: 1, 7: 2}","[3, 7, 21]",3372211,Li3Sc1N2
Li3FeN2,mp-28628,0.0,3.6903244,0.0,icsd-68523,"{3: 3, 26: 1, 7: 2}","[3, 7, 26]",3372261,Li3Fe1N2
Li3GaN2,mp-3887,2.3783,2.32173425,0.0,icsd-634534,"{3: 3, 31: 1, 7: 2}","[3, 7, 31]",3372311,Li3Ga1N2
Li3CaMnN3,mp-569112,0.07319999999999993,3.82414688,0.0,icsd-408324,"{3: 3, 20: 1, 25: 1, 7: 3}","[3, 7, 20, 25]",3373201251,Li3Ca1Mn1N3
SrLi3MnN3,mp-570931,0.0,3.65501379,0.0,icsd-412874,"{38: 1, 3: 3, 25: 1, 7: 3}","[3, 7, 25, 38]",3373251381,Sr1Li3Mn1N3
Sr2Li3NbN4,mp-541568,2.1148000000000002,2.34949182,0.0,icsd-84715,"{38: 2, 3: 3, 41: 1, 7: 4}","[3, 7, 38, 41]",3374382411,Sr2Li3Nb1N4
Sr2Li3TaN4,mp-541569,2.1584,2.35858506,0.0,icsd-84716,"{38: 2, 3: 3, 73: 1, 7: 4}","[3, 7, 38, 73]",3374382731,Sr2Li3Ta1N4
Ba2Li3TaN4,mp-573677,2.2751,2.16205207,0.0,icsd-75031,"{56: 2, 3: 3, 73: 1, 7: 4}","[3, 7, 56, 73]",3374562731,Ba2Li3Ta1N4
Li3Y(NO3)6,mp-1212171,3.1094,-0.618013,0.0,pf-29256,"{3: 3, 39: 1, 7: 6, 8: 18}","[3, 7, 8, 39]",3376818391,Li3Y1N6O18
Li3Gd(NO3)6,mp-1212476,2.6228,-0.66268288,0.0,pf-30566,"{3: 3, 64: 1, 7: 6, 8: 18}","[3, 7, 8, 64]",3376818641,Li3Gd1N6O18
Li3Tb(NO3)6,mp-1212130,3.104,-0.71992935,0.0,pf-40995,"{3: 3, 65: 1, 7: 6, 8: 18}","[3, 7, 8, 65]",3376818651,Li3Tb1N6O18
Li3Dy(NO3)6,mp-1211772,3.1081000000000003,-0.56864655,0.0,pf-9627,"{3: 3, 66: 1, 7: 6, 8: 18}","[3, 7, 8, 66]",3376818661,Li3Dy1N6O18
Li3Er(NO3)6,mp-559129,3.1386000000000003,-0.85821514,0.0,icsd-401554,"{3: 3, 68: 1, 7: 6, 8: 18}","[3, 7, 8, 68]",3376818681,Li3Er1N6O18
Li3Tm(NO3)6,mp-1212059,3.0238,-0.73241299,0.0,pf-8273,"{3: 3, 69: 1, 7: 6, 8: 18}","[3, 7, 8, 69]",3376818691,Li3Tm1N6O18
Li3Lu(NO3)6,mp-1212270,3.1118,-0.45128759,0.0,pf-29338,"{3: 3, 71: 1, 7: 6, 8: 18}","[3, 7, 8, 71]",3376818711,Li3Lu1N6O18
Li3Au,mp-11247,0.0,2.47444662,0.0,icsd-58524,"{3: 3, 79: 1}","[3, 79]",33791,Li3Au1
Li3Tl,mp-7396,0.0,3.67076318,0.0,icsd-10052,"{3: 3, 81: 1}","[3, 81]",33811,Li3Tl1
Li3Sc2(PO4)3,mp-6565,4.7407,0.78336355,0.0,icsd-62301,"{3: 3, 21: 2, 15: 3, 8: 12}","[3, 8, 15, 21]",33812153212,Li3Sc2P3O12
Li3V2(PO4)3,mp-6396,1.7296,2.32002374,0.0,icsd-168268,"{3: 3, 23: 2, 15: 3, 8: 12}","[3, 8, 15, 23]",33812153232,Li3V2P3O12
Li3In2(PO4)3,mp-6425,3.7684,1.4845883,0.0,icsd-62878,"{3: 3, 49: 2, 15: 3, 8: 12}","[3, 8, 15, 49]",33812153492,Li3In2P3O12
Li3Mn2(SeO3)4,mp-1211552,0.7033,1.51618042,0.0,pf-37659,"{3: 3, 25: 2, 34: 4, 8: 12}","[3, 8, 25, 34]",33812252344,Li3Mn2Se4O12
Li3Y3(TeO6)2,mp-1211226,3.2397,3.1379264,0.0,pf-8973,"{3: 3, 39: 3, 52: 2, 8: 12}","[3, 8, 39, 52]",33812393522,Li3Y3Te2O12
Li3Pr3(TeO6)2,mp-1211386,3.1280999999999994,3.1088656,0.0,pf-37422,"{3: 3, 59: 3, 52: 2, 8: 12}","[3, 8, 52, 59]",33812522593,Li3Pr3Te2O12
Li3Sm3(TeO6)2,mp-1211256,3.4655000000000005,5.82974168,0.0,pf-4683,"{3: 3, 62: 3, 52: 2, 8: 12}","[3, 8, 52, 62]",33812522623,Li3Sm3Te2O12
Li3Gd3(TeO6)2,mp-1212457,2.8187,2.97445161,0.0,pf-25760,"{3: 3, 64: 3, 52: 2, 8: 12}","[3, 8, 52, 64]",33812522643,Li3Gd3Te2O12
Li3Tb3(TeO6)2,mp-1211213,3.5219,5.99054495,0.0,pf-25582,"{3: 3, 65: 3, 52: 2, 8: 12}","[3, 8, 52, 65]",33812522653,Li3Tb3Te2O12
Li3Dy3(TeO6)2,mp-1210935,3.5476999999999994,6.01982322,0.0,pf-3319,"{3: 3, 66: 3, 52: 2, 8: 12}","[3, 8, 52, 66]",33812522663,Li3Dy3Te2O12
Li3Ho3(TeO6)2,mp-1211542,3.5705,6.00932891,0.0,pf-36059,"{3: 3, 67: 3, 52: 2, 8: 12}","[3, 8, 52, 67]",33812522673,Li3Ho3Te2O12
Li3Er3(TeO6)2,mp-1210989,3.5823,6.03581788,0.0,pf-13821,"{3: 3, 68: 3, 52: 2, 8: 12}","[3, 8, 52, 68]",33812522683,Li3Er3Te2O12
Li3Tm3(TeO6)2,mp-1211248,3.1382,3.01924908,0.0,pf-24361,"{3: 3, 69: 3, 52: 2, 8: 12}","[3, 8, 52, 69]",33812522693,Li3Tm3Te2O12
Li3Lu3(TeO6)2,mp-1211646,3.1062,2.59619112,0.0,pf-15103,"{3: 3, 71: 3, 52: 2, 8: 12}","[3, 8, 52, 71]",33812522713,Li3Lu3Te2O12
Li3Nd3(WO6)2,mp-557717,3.6605999999999996,1.5037388,0.0,icsd-245640,"{3: 3, 60: 3, 74: 2, 8: 12}","[3, 8, 60, 74]",33812603742,Li3Nd3W2O12
KNa2Li3Cr2(Si2O5)6,mp-16282,4.3993,1.85527111,0.0,icsd-77124,"{19: 1, 11: 2, 3: 3, 24: 2, 14: 12, 8: 30}","[3, 8, 11, 14, 19, 24]",338301121412191242,K1Na2Li3Cr2Si12O30
KNa2Li3Fe2(Si2O5)6,mp-16283,4.6926000000000005,1.40214476,0.0,icsd-77125,"{19: 1, 11: 2, 3: 3, 26: 2, 14: 12, 8: 30}","[3, 8, 11, 14, 19, 26]",338301121412191262,K1Na2Li3Fe2Si12O30
KLi3Zr2(Si2O5)6,mp-16055,5.1498,0.62227051,0.0,icsd-89899,"{19: 1, 3: 3, 40: 2, 14: 12, 8: 30}","[3, 8, 14, 19, 40]",338301412191402,K1Li3Zr2Si12O30
KLi3Si12(SnO15)2,mp-6844,4.4356,1.05406974,0.0,icsd-202623,"{19: 1, 3: 3, 14: 12, 50: 2, 8: 30}","[3, 8, 14, 19, 50]",338301412191502,K1Li3Si12Sn2O30
Li3Bi,mp-23222,0.34289999999999976,2.90571406,0.0,icsd-616778,"{3: 3, 83: 1}","[3, 83]",33831,Li3Bi1
Li3CuO3,mp-19970,0.9644,0.5593831,0.0,icsd-4201,"{3: 3, 29: 1, 8: 3}","[3, 8, 29]",3383291,Li3Cu1O3
KLi3Ca7Ti2Si12(O18F)2,mp-641919,3.5221,1.42806931,0.0,icsd-20095,"{19: 1, 3: 3, 20: 7, 22: 2, 14: 12, 8: 36, 9: 2}","[3, 8, 9, 14, 19, 20, 22]",33836921412191207222,K1Li3Ca7Ti2Si12O36F2
Li3AuO3,mp-7471,1.8710999999999998,0.66930665,0.0,icsd-15113,"{3: 3, 79: 1, 8: 3}","[3, 8, 79]",3383791,Li3Au1O3
Li3BiO3,mp-28510,2.4379,1.47422843,0.0,icsd-40245,"{3: 3, 83: 1, 8: 3}","[3, 8, 83]",3383831,Li3Bi1O3
NaLi3SiO4,mp-559904,4.4978,0.89240422,0.0,icsd-202115,"{11: 1, 3: 3, 14: 1, 8: 4}","[3, 8, 11, 14]",3384111141,Na1Li3Si1O4
NaLi3GeO4,mp-561254,3.6606,0.01100571,0.0,icsd-202116,"{11: 1, 3: 3, 32: 1, 8: 4}","[3, 8, 11, 32]",3384111321,Na1Li3Ge1O4
Na2Li3FeO4,mp-540965,2.9156,0.96331968,0.0,icsd-33279,"{11: 2, 3: 3, 26: 1, 8: 4}","[3, 8, 11, 26]",3384112261,Na2Li3Fe1O4
Na2Li3CoO4,mp-504854,1.4597,1.26346749,0.0,icsd-33890,"{11: 2, 3: 3, 27: 1, 8: 4}","[3, 8, 11, 27]",3384112271,Na2Li3Co1O4
Na2Li3GaO4,mp-540945,3.2395,0.41224877,0.0,icsd-37071,"{11: 2, 3: 3, 31: 1, 8: 4}","[3, 8, 11, 31]",3384112311,Na2Li3Ga1O4
KLi3SiO4,mp-1211498,4.875699999999999,0.69883036,0.0,pf-3177,"{19: 1, 3: 3, 14: 1, 8: 4}","[3, 8, 14, 19]",3384141191,K1Li3Si1O4
Li3PO4,mp-13725,5.818099999999999,0.6255881,0.0,icsd-10257,"{3: 3, 15: 1, 8: 4}","[3, 8, 15]",3384151,Li3P1O4
KLi3TiO4,mp-1211546,4.6824,4.55711603,0.0,pf-13687,"{19: 1, 3: 3, 22: 1, 8: 4}","[3, 8, 19, 22]",3384191221,K1Li3Ti1O4
KLi3GeO4,mp-18002,3.9368,-0.12183589,0.0,icsd-38324,"{19: 1, 3: 3, 32: 1, 8: 4}","[3, 8, 19, 32]",3384191321,K1Li3Ge1O4
KLi3PbO4,mp-559106,1.6930999999999998,1.17055634,0.0,icsd-37084,"{19: 1, 3: 3, 82: 1, 8: 4}","[3, 8, 19, 82]",3384191821,K1Li3Pb1O4
K2Li3FeO4,mp-16955,3.0917,0.78395393,0.0,icsd-33280,"{19: 2, 3: 3, 26: 1, 8: 4}","[3, 8, 19, 26]",3384192261,K2Li3Fe1O4
K2Li3GaO4,mp-17774,3.3151,0.38391842,0.0,icsd-35290,"{19: 2, 3: 3, 31: 1, 8: 4}","[3, 8, 19, 31]",3384192311,K2Li3Ga1O4
Li3VO4,mp-19219,3.6915999999999998,-0.67359684,0.0,icsd-239303,"{3: 3, 23: 1, 8: 4}","[3, 8, 23]",3384231,Li3V1O4
Rb2Li3GaO4,mp-1209478,3.5182,3.74070988,0.0,pf-4232,"{37: 2, 3: 3, 31: 1, 8: 4}","[3, 8, 31, 37]",3384311372,Rb2Li3Ga1O4
Cs2Li3GaO4,mp-555140,3.6593,1.14481623,0.0,icsd-69491,"{55: 2, 3: 3, 31: 1, 8: 4}","[3, 8, 31, 55]",3384311552,Cs2Li3Ga1O4
Li3AsO4,mp-9197,4.1268,-0.03226995,0.0,icsd-75927,"{3: 3, 33: 1, 8: 4}","[3, 8, 33]",3384331,Li3As1O4
Li3NbO4,mp-31488,3.7757,0.91375854,0.0,icsd-75264,"{3: 3, 41: 1, 8: 4}","[3, 8, 41]",3384411,Li3Nb1O4
Li3SbO4,mp-5769,3.0560000000000005,2.6938652,0.0,icsd-82864,"{3: 3, 51: 1, 8: 4}","[3, 8, 51]",3384511,Li3Sb1O4
Li3TaO4,mp-3151,4.2438,1.0551473,0.0,icsd-281301,"{3: 3, 73: 1, 8: 4}","[3, 8, 73]",3384731,Li3Ta1O4
Li3BiO4,mp-557738,1.0578999999999996,2.09080846,0.0,icsd-109087,"{3: 3, 83: 1, 8: 4}","[3, 8, 83]",3384831,Li3Bi1O4
Li3UO4,mp-551675,0.3780000000000001,5.60618787,0.0,icsd-109090,"{3: 3, 92: 1, 8: 4}","[3, 8, 92]",3384921,Li3U1O4
Li3AlSiO5,mp-1020023,4.4558,1.6473903,0.0,icsd-252215,"{3: 3, 13: 1, 14: 1, 8: 5}","[3, 8, 13, 14]",3385131141,Li3Al1Si1O5
Li3AlGeO5,mp-6765,3.9691999999999994,0.80857524,0.0,icsd-72099,"{3: 3, 13: 1, 32: 1, 8: 5}","[3, 8, 13, 32]",3385131321,Li3Al1Ge1O5
Li3GaSiO5,mp-16996,3.6429,0.93697693,0.0,icsd-72100,"{3: 3, 31: 1, 14: 1, 8: 5}","[3, 8, 14, 31]",3385141311,Li3Ga1Si1O5
Li3GaGeO5,mp-17685,3.2656,0.10707484,0.0,icsd-72101,"{3: 3, 31: 1, 32: 1, 8: 5}","[3, 8, 31, 32]",3385311321,Li3Ga1Ge1O5
K3Li3TeO6,mp-560739,2.6948,1.49217019,0.0,icsd-202071,"{19: 3, 3: 3, 52: 1, 8: 6}","[3, 8, 19, 52]",3386193521,K3Li3Te1O6
Li3MnP2(O3F2)2,mp-1199210,1.7453,0.15180736,0.0,icsd-424941,"{3: 3, 25: 1, 15: 2, 8: 6, 9: 4}","[3, 8, 9, 15, 25]",338694152251,Li3Mn1P2O6F4
Na3Li3Al2F12,mp-6711,7.0872,-1.93776339,0.0,icsd-31110,"{11: 3, 3: 3, 13: 2, 9: 12}","[3, 9, 11, 13]",33912113132,Na3Li3Al2F12
Na3Li3Sc2F12,mp-14023,6.8685,-2.73858823,0.0,icsd-27007,"{11: 3, 3: 3, 21: 2, 9: 12}","[3, 9, 11, 21]",33912113212,Na3Li3Sc2F12
Na3Li3Ti2F12,mp-14457,0.0,2.8151019,0.0,icsd-60363,"{11: 3, 3: 3, 22: 2, 9: 12}","[3, 9, 11, 22]",33912113222,Na3Li3Ti2F12
Na3Li3V2F12,mp-6153,0.0,0.82150361,0.0,icsd-60364,"{11: 3, 3: 3, 23: 2, 9: 12}","[3, 9, 11, 23]",33912113232,Na3Li3V2F12
Na3Li3Cr2F12,mp-14458,3.8583,-1.34135584,0.0,icsd-60365,"{11: 3, 3: 3, 24: 2, 9: 12}","[3, 9, 11, 24]",33912113242,Na3Li3Cr2F12
Na3Li3Fe2F12,mp-6247,3.6235,-2.30112243,0.0,icsd-60366,"{11: 3, 3: 3, 26: 2, 9: 12}","[3, 9, 11, 26]",33912113262,Na3Li3Fe2F12
Na3Li3Rh2F12,mp-1210682,1.9933,0.40679752,0.0,pf-19942,"{11: 3, 3: 3, 45: 2, 9: 12}","[3, 9, 11, 45]",33912113452,Na3Li3Rh2F12
Na3Li3In2F12,mp-6527,5.2896,-1.98623287,0.0,icsd-416927,"{11: 3, 3: 3, 49: 2, 9: 12}","[3, 9, 11, 49]",33912113492,Na3Li3In2F12
Li3AlF6,mp-15254,7.688400000000001,-1.82875722,0.0,icsd-252226,"{3: 3, 13: 1, 9: 6}","[3, 9, 13]",3396131,Li3Al1F6
Li3ScF6,mp-560890,6.6768,-2.58321049,0.0,icsd-415135,"{3: 3, 21: 1, 9: 6}","[3, 9, 21]",3396211,Li3Sc1F6
Li3VF6,mp-21633,2.4336,-0.25754429,0.0,icsd-100300,"{3: 3, 23: 1, 9: 6}","[3, 9, 23]",3396231,Li3V1F6
Li3CrF6,mp-561396,3.9644000000000004,-1.17216253,0.0,icsd-410779,"{3: 3, 24: 1, 9: 6}","[3, 9, 24]",3396241,Li3Cr1F6
Li3GaF6,mp-15558,6.2804,-2.54857023,0.0,icsd-409384,"{3: 3, 31: 1, 9: 6}","[3, 9, 31]",3396311,Li3Ga1F6
Li4SiPt3,mp-1105613,0.0,4.15026601,0.0,icsd-186537,"{3: 4, 14: 1, 78: 3}","[3, 14, 78]",34141783,Li4Si1Pt3
Sr(Li2P)2,mp-570097,0.9758999999999998,2.28527014,0.0,icsd-416888,"{38: 1, 3: 4, 15: 2}","[3, 15, 38]",34152381,Sr1Li4P2
Li4SnS4,mp-1195718,2.3564,3.82901387,0.0,icsd-290832,"{3: 4, 50: 1, 16: 4}","[3, 16, 50]",34164501,Li4Sn1S4