formula,material_id,band_gap,efermi,energy_above_hull,database_IDs,comp_atoms,sorted_keys_comp_atoms,comp_number,new_formula
Li2Sn(H5O4)2,mp-1195757,4.465,3.89273369,0.0,icsd-188663,"{3: 2, 50: 1, 1: 10, 8: 8}","[1, 3, 8, 50]",1103288501,Li2Sn1H10O8
RbLiH12Se3N4,mp-866716,0.8006,0.60639806,0.0,icsd-413744,"{37: 1, 3: 1, 1: 12, 34: 3, 7: 4}","[1, 3, 7, 34, 37]",1123174343371,Rb1Li1H12Se3N4
LiTe(H3N)4,mp-773582,1.2814999999999999,0.5513294,0.0,icsd-409556,"{3: 1, 52: 1, 1: 12, 7: 4}","[1, 3, 7, 52]",1123174521,Li1Te1H12N4
Li4Zn(H2N)6,mp-1194891,2.6176,1.4801319,0.0,icsd-429150,"{3: 4, 30: 1, 1: 12, 7: 6}","[1, 3, 7, 30]",1123476301,Li4Zn1H12N6
LiH,mp-23703,2.981,-0.99767685,0.0,icsd-638265,"{3: 1, 1: 1}","[1, 3]",1131,Li1H1
LiHS,mp-644419,3.5253,-0.10720894,0.0,icsd-98020,"{3: 1, 1: 1, 16: 1}","[1, 3, 16]",1131161,Li1H1S1
LiCa3As2H,mp-1192528,1.4416999999999995,2.72117019,0.0,icsd-251501,"{3: 1, 20: 3, 33: 2, 1: 1}","[1, 3, 20, 33]",1131203332,Li1Ca3As2H1
Sr3LiAs2H,mp-1192357,1.4556,2.26704998,0.0,icsd-195634,"{38: 3, 3: 1, 33: 2, 1: 1}","[1, 3, 33, 38]",1131332383,Sr3Li1As2H1
LiHPd,mp-1018133,0.0,3.93875244,0.0,icsd-246613,"{3: 1, 1: 1, 46: 1}","[1, 3, 46]",1131461,Li1H1Pd1
NaLiSiB3HO8,mp-558267,5.0818,0.62636467,0.0,icsd-249311,"{11: 1, 3: 1, 14: 1, 5: 3, 1: 1, 8: 8}","[1, 3, 5, 8, 11, 14]",11315388111141,Na1Li1Si1B3H1O8
LiCa2HC3,mp-1104693,1.2992,3.79123141,0.0,icsd-188224,"{3: 1, 20: 2, 1: 1, 6: 3}","[1, 3, 6, 20]",113163202,Li1Ca2H1C3
LiHO,mp-23856,4.0057,-1.90379562,0.0,icsd-27543,"{3: 1, 1: 1, 8: 1}","[1, 3, 8]",113181,Li1H1O1
LiCa2Mn2Si5HO15,mp-1202461,3.4069000000000003,3.10937681,0.0,icsd-262127,"{3: 1, 20: 2, 25: 2, 14: 5, 1: 1, 8: 15}","[1, 3, 8, 14, 20, 25]",1131815145202252,Li1Ca2Mn2Si5H1O15
LiTlPHO3,mp-772968,3.7371999999999996,1.20583274,0.0,icsd-201040,"{3: 1, 81: 1, 15: 1, 1: 1, 8: 3}","[1, 3, 8, 15, 81]",113183151811,Li1Tl1P1H1O3
LiHSeO3,mp-23843,4.3019,-0.59750214,0.0,icsd-403078,"{3: 1, 1: 1, 34: 1, 8: 3}","[1, 3, 8, 34]",113183341,Li1H1Se1O3
LiHSO4,mp-643458,5.9636,-1.02322675,0.0,icsd-82373,"{3: 1, 1: 1, 16: 1, 8: 4}","[1, 3, 8, 16]",113184161,Li1H1S1O4
LiFePHO5,mp-756507,0.0,1.53120312,0.0,icsd-252074,"{3: 1, 26: 1, 15: 1, 1: 1, 8: 5}","[1, 3, 8, 15, 26]",113185151261,Li1Fe1P1H1O5
LiFeHSO5,mp-943462,3.6749,1.6775356,0.0,icsd-191101,"{3: 1, 26: 1, 1: 1, 16: 1, 8: 5}","[1, 3, 8, 16, 26]",113185161261,Li1Fe1H1S1O5
LiZnP2HO7,mp-1211621,4.4957,0.37234077,0.0,pf-3441,"{3: 1, 30: 1, 15: 2, 1: 1, 8: 7}","[1, 3, 8, 15, 30]",113187152301,Li1Zn1P2H1O7
LiCd2HSe2O7,mp-697926,3.1466,0.41580164,0.0,icsd-95790,"{3: 1, 48: 2, 1: 1, 34: 2, 8: 7}","[1, 3, 8, 34, 48]",113187342482,Li1Cd2H1Se2O7
LiHF2,mp-24199,8.0448,-3.44629557,0.0,icsd-23883,"{3: 1, 1: 1, 9: 2}","[1, 3, 9]",113192,Li1H1F2
Li2HN,mp-1189725,2.0831,0.50274726,0.0,icsd-168791,"{3: 2, 1: 1, 7: 1}","[1, 3, 7]",113271,Li2H1N1
Li2HIO,mp-643069,4.3237,-0.78516399,0.0,icsd-97316,"{3: 2, 1: 1, 53: 1, 8: 1}","[1, 3, 8, 53]",113281531,Li2H1I1O1
Li3TeHO4,mp-696949,3.3657999999999997,0.70784245,0.0,icsd-38036,"{3: 3, 52: 1, 1: 1, 8: 4}","[1, 3, 8, 52]",113384521,Li3Te1H1O4
Li4HN,mp-30228,2.0727,0.15169331,0.0,icsd-168794,"{3: 4, 1: 1, 7: 1}","[1, 3, 7]",113471,Li4H1N1
Li2SnH14Se3O7,mp-1195382,1.9732,1.59400007,0.0,icsd-193771,"{3: 2, 50: 1, 1: 14, 34: 3, 8: 7}","[1, 3, 8, 34, 50]",1143287343501,Li2Sn1H14Se3O7
Li3AsH16(SO2)4,mp-1196446,2.3283,-0.03714212,0.0,icsd-188667,"{3: 3, 33: 1, 1: 16, 16: 4, 8: 8}","[1, 3, 8, 16, 33]",1163388164331,Li3As1H16S4O8
LiZr3H18N4F19,mp-601344,6.3872,-2.8654918,0.0,icsd-152166,"{3: 1, 40: 3, 1: 18, 7: 4, 9: 19}","[1, 3, 7, 9, 40]",1183174919403,Li1Zr3H18N4F19
LiZn2(BH4)5,mp-1198025,5.7198,-4.21263501,0.0,icsd-246766,"{3: 1, 30: 2, 5: 5, 1: 20}","[1, 3, 5, 30]",1203155302,Li1Zn2B5H20
LiPH21S3N7,mp-760046,3.0591000000000004,-0.0062646,0.0,icsd-412156,"{3: 1, 15: 1, 1: 21, 16: 3, 7: 7}","[1, 3, 7, 15, 16]",1213177151163,Li1P1H21S3N7
LiB5H2O9,mp-740714,6.0817,-1.13172238,0.0,icsd-72519,"{3: 1, 5: 5, 1: 2, 8: 9}","[1, 3, 5, 8]",12315589,Li1B5H2O9
LiH2N,mp-23702,3.1357999999999997,-0.74268953,0.0,icsd-182470,"{3: 1, 1: 2, 7: 1}","[1, 3, 7]",123171,Li1H2N1
LiH2BrO,mp-754153,4.3086,-0.85858664,0.0,icsd-391154,"{3: 1, 1: 2, 35: 1, 8: 1}","[1, 3, 8, 35]",123181351,Li1H2Br1O1
LiP(HO)2,mp-642650,5.3164,-1.74267339,0.0,icsd-59823,"{3: 1, 15: 1, 1: 2, 8: 2}","[1, 3, 8, 15]",123182151,Li1P1H2O2
LiP(HO2)2,mp-24610,5.5778,-0.64892071,0.0,icsd-182309,"{3: 1, 15: 1, 1: 2, 8: 4}","[1, 3, 8, 15]",123184151,Li1P1H2O4
LiH2ClO5,mp-1195620,5.5649999999999995,4.72774217,0.0,icsd-430214,"{3: 1, 1: 2, 17: 1, 8: 5}","[1, 3, 8, 17]",123185171,Li1H2Cl1O5
LiH2BrO5,mp-1201902,3.0459,-1.48830305,0.0,icsd-79715,"{3: 1, 1: 2, 35: 1, 8: 5}","[1, 3, 8, 35]",123185351,Li1H2Br1O5
LiScH2Se2O7,mp-1196171,4.07,0.39438148,0.0,icsd-239791,"{3: 1, 21: 1, 1: 2, 34: 2, 8: 7}","[1, 3, 8, 21, 34]",123187211342,Li1Sc1H2Se2O7
LiAs3H2O9,mp-1203059,2.8119,2.07214453,0.0,icsd-172987,"{3: 1, 33: 3, 1: 2, 8: 9}","[1, 3, 8, 33]",123189333,Li1As3H2O9
Rb4LiZr3H2F19,mp-557793,6.135400000000001,-2.96827366,0.0,icsd-152167,"{37: 4, 3: 1, 40: 3, 1: 2, 9: 19}","[1, 3, 9, 37, 40]",1231919374403,Rb4Li1Zr3H2F19
Li2H2Pd,mp-644389,0.0,2.19731764,0.0,icsd-108534,"{3: 2, 1: 2, 46: 1}","[1, 3, 46]",1232461,Li2H2Pd1
Li2H2Pt,mp-644136,0.0,2.8125772,0.0,icsd-78958,"{3: 2, 1: 2, 78: 1}","[1, 3, 78]",1232781,Li2H2Pt1
Li3B5(HO5)2,mp-1199091,5.833799999999999,0.47223995,0.0,icsd-418166,"{3: 3, 5: 5, 1: 2, 8: 10}","[1, 3, 5, 8]",123355810,Li3B5H2O10
Li2P7(H3N)9,mp-1198596,2.0904999999999996,2.60055468,0.0,icsd-416230,"{3: 2, 15: 7, 1: 27, 7: 9}","[1, 3, 7, 15]",1273279157,Li2P7H27N9
LiCa7(GeH)3,mp-1202682,0.7149000000000001,3.35145437,0.0,icsd-422831,"{3: 1, 20: 7, 32: 3, 1: 3}","[1, 3, 20, 32]",1331207323,Li1Ca7Ge3H3
BaLiH3,mp-23818,2.2146,1.16875057,0.0,icsd-416463,"{56: 1, 3: 1, 1: 3}","[1, 3, 56]",1331561,Ba1Li1H3
LiEuH3,mp-541365,0.0,3.19817659,0.0,icsd-416461,"{3: 1, 63: 1, 1: 3}","[1, 3, 63]",1331631,Li1Eu1H3
LiH3IN,mp-1103298,3.8235,2.49596239,0.0,icsd-55064,"{3: 1, 1: 3, 53: 1, 7: 1}","[1, 3, 7, 53]",133171531,Li1H3I1N1
K4LiH3(SO4)4,mp-709186,5.394,-0.68170104,0.0,icsd-150859,"{19: 4, 3: 1, 1: 3, 16: 4, 8: 16}","[1, 3, 8, 16, 19]",1331816164194,K4Li1H3S4O16
Rb4LiH3(SO4)4,mp-1198331,5.095000000000001,-0.50479684,0.0,icsd-413717,"{37: 4, 3: 1, 1: 3, 16: 4, 8: 16}","[1, 3, 8, 16, 37]",1331816164374,Rb4Li1H3S4O16
LiH3O2,mp-27281,4.543,-1.70024178,0.0,icsd-9138,"{3: 1, 1: 3, 8: 2}","[1, 3, 8]",133182,Li1H3O2
LiAs2H3O7,mp-1192746,3.301,-0.2412673,0.0,icsd-172988,"{3: 1, 33: 2, 1: 3, 8: 7}","[1, 3, 8, 33]",133187332,Li1As2H3O7
KLi2(HO)3,mp-1188395,4.2639,2.99959147,0.0,icsd-65148,"{19: 1, 3: 2, 1: 3, 8: 3}","[1, 3, 8, 19]",133283191,K1Li2H3O3
CsLi2(HO)3,mp-697181,4.1415,-0.58142131,0.0,icsd-51678,"{55: 1, 3: 2, 1: 3, 8: 3}","[1, 3, 8, 55]",133283551,Cs1Li2H3O3
Li4H3ClO3,mp-643259,4.4775,-1.91211795,0.0,icsd-74929,"{3: 4, 1: 3, 17: 1, 8: 3}","[1, 3, 8, 17]",133483171,Li4H3Cl1O3
Li4H3BrO3,mp-753690,4.4379,-2.07285937,0.0,icsd-412730,"{3: 4, 1: 3, 35: 1, 8: 3}","[1, 3, 8, 35]",133483351,Li4H3Br1O3
Li3AsH36(SeN3)4,mp-866667,1.8941,-0.01023626,0.0,icsd-409539,"{3: 3, 33: 1, 1: 36, 34: 4, 7: 12}","[1, 3, 7, 33, 34]",13633712331344,Li3As1H36Se4N12
Li3As7(H3N)13,mp-1199218,1.8068000000000002,0.54685233,0.0,icsd-415189,"{3: 3, 33: 7, 1: 39, 7: 13}","[1, 3, 7, 33]",13933713337,Li3As7H39N13
LiBH4,mp-1192133,6.3705,2.42726724,0.0,icsd-168802,"{3: 1, 5: 1, 1: 4}","[1, 3, 5]",143151,Li1B1H4
LiH4SNO4,mp-1194832,5.371499999999999,-0.80047183,0.0,icsd-194493,"{3: 1, 1: 4, 16: 1, 7: 1, 8: 4}","[1, 3, 7, 8, 16]",14317184161,Li1H4S1N1O4
RbLi(H2N)2,mp-510073,2.3503,-0.02492435,0.0,icsd-95787,"{37: 1, 3: 1, 1: 4, 7: 2}","[1, 3, 7, 37]",143172371,Rb1Li1H4N2
CsLi(H2N)2,mp-642740,1.9969999999999999,0.55871336,0.0,icsd-62654,"{55: 1, 3: 1, 1: 4, 7: 2}","[1, 3, 7, 55]",143172551,Cs1Li1H4N2
K10LiZr6H4O2F35,mp-1196541,0.00039999999999995595,3.17906773,0.0,icsd-422946,"{19: 10, 3: 1, 40: 6, 1: 4, 8: 2, 9: 35}","[1, 3, 8, 9, 19, 40]",1431829351910406,K10Li1Zr6H4O2F35
Li2BeH4,mp-1180666,4.5911,2.36262188,0.0,icsd-170222,"{3: 2, 4: 1, 1: 4}","[1, 3, 4]",143241,Li2Be1H4
Li2H4(SO4)3,mp-720254,5.8773,-1.43378782,0.0,icsd-78741,"{3: 2, 1: 4, 16: 3, 8: 12}","[1, 3, 8, 16]",1432812163,Li2H4S3O12
Li3H4Rh,mp-697047,0.3917999999999999,1.02780984,0.0,icsd-40581,"{3: 3, 1: 4, 45: 1}","[1, 3, 45]",1433451,Li3H4Rh1
Li4H4Rh,mp-27797,0.0,1.65596075,0.0,icsd-26226,"{3: 4, 1: 4, 45: 1}","[1, 3, 45]",1434451,Li4H4Rh1
Na2LiAlH6,mp-24413,2.8917,0.72957574,0.0,icsd-152893,"{11: 2, 3: 1, 13: 1, 1: 6}","[1, 3, 11, 13]",1631112131,Na2Li1Al1H6
K2LiAlH6,mp-23774,2.5761,0.14027695,0.0,icsd-245318,"{19: 2, 3: 1, 13: 1, 1: 6}","[1, 3, 13, 19]",1631131192,K2Li1Al1H6
Li(BH)6,mp-1198726,5.6126000000000005,-1.71115326,0.0,icsd-246144,"{3: 1, 5: 6, 1: 6}","[1, 3, 5]",163156,Li1B6H6
K2Li(H2N)3,mp-1198663,2.3848000000000003,1.85688084,0.0,icsd-414252,"{19: 2, 3: 1, 1: 6, 7: 3}","[1, 3, 7, 19]",163173192,K2Li1H6N3
LiSn(H2N)3,mp-1197059,2.881,2.47530309,0.0,icsd-50467,"{3: 1, 50: 1, 1: 6, 7: 3}","[1, 3, 7, 50]",163173501,Li1Sn1H6N3
LiMn3H6(SeO3)8,mp-1196748,1.6130999999999998,0.40045947,0.0,icsd-172979,"{3: 1, 25: 3, 1: 6, 34: 8, 8: 24}","[1, 3, 8, 25, 34]",1631824253348,Li1Mn3H6Se8O24
LiAl2H6ClO6,mp-643655,4.9389,-0.40500802,0.0,icsd-83509,"{3: 1, 13: 2, 1: 6, 17: 1, 8: 6}","[1, 3, 8, 13, 17]",163186132171,Li1Al2H6Cl1O6
LiTcH6O7,mp-1192681,3.4433999999999996,1.36753937,0.0,icsd-422191,"{3: 1, 43: 1, 1: 6, 8: 7}","[1, 3, 8, 43]",163187431,Li1Tc1H6O7
Li2H6Pt,mp-1078552,2.8838,-0.77772612,0.0,icsd-247465,"{3: 2, 1: 6, 78: 1}","[1, 3, 78]",1632781,Li2H6Pt1
Li3AlH6,mp-31096,3.5929,0.02417565,0.0,icsd-153660,"{3: 3, 13: 1, 1: 6}","[1, 3, 13]",1633131,Li3Al1H6
Li3H6Rh,mp-733455,2.4252,-0.90303132,0.0,icsd-658691,"{3: 3, 1: 6, 45: 1}","[1, 3, 45]",1633451,Li3H6Rh1
Li3H6Ir,mp-722890,3.0495,-0.51314061,0.0,icsd-638198,"{3: 3, 1: 6, 77: 1}","[1, 3, 77]",1633771,Li3H6Ir1
Li4H6Ru,mp-642847,2.388,0.06934873,0.0,icsd-655971,"{3: 4, 1: 6, 44: 1}","[1, 3, 44]",1634441,Li4H6Ru1
Li4H6Os,mp-642996,2.691,-0.0537873,0.0,icsd-638269,"{3: 4, 1: 6, 76: 1}","[1, 3, 76]",1634761,Li4H6Os1
LiGa(H2N)4,mp-1194674,3.1636,1.46882509,0.0,icsd-427081,"{3: 1, 31: 1, 1: 8, 7: 4}","[1, 3, 7, 31]",183174311,Li1Ga1H8N4
LiUP(H4O5)2,mp-560246,2.5244,-0.48361361,0.0,icsd-54839,"{3: 1, 92: 1, 15: 1, 1: 8, 8: 10}","[1, 3, 8, 15, 92]",1831810151921,Li1U1P1H8O10
NaLi3(H2N)4,mp-505381,2.5675999999999997,-0.73734953,0.0,icsd-201147,"{11: 1, 3: 3, 1: 8, 7: 4}","[1, 3, 7, 11]",183374111,Na1Li3H8N4
Li5H9Pt2,mp-643656,0.0,1.61872396,0.0,icsd-83687,"{3: 5, 1: 9, 78: 2}","[1, 3, 78]",1935782,Li5H9Pt2
Li,mp-1018134,0.0,0.58312251,0.0,icsd-642105,{3: 1},[3],31,Li1
Li10BrN3,mp-28989,1.3667,0.36508959,0.0,icsd-78819,"{3: 10, 35: 1, 7: 3}","[3, 7, 35]",31073351,Li10Br1N3
Li10Zn4O9,mp-3297,2.329,0.31932731,0.0,icsd-68494,"{3: 10, 30: 4, 8: 9}","[3, 8, 30]",31089304,Li10Zn4O9
NaLiS,mp-8452,2.2642,1.39127935,0.0,icsd-61091,"{11: 1, 3: 1, 16: 1}","[3, 11, 16]",31111161,Na1Li1S1
NaLiSe,mp-28603,2.4375,0.99159548,0.0,icsd-67359,"{11: 1, 3: 1, 34: 1}","[3, 11, 34]",31111341,Na1Li1Se1
NaLiTe,mp-8754,2.2840000000000003,2.24830202,0.0,icsd-67274,"{11: 1, 3: 1, 52: 1}","[3, 11, 52]",31111521,Na1Li1Te1
Na2LiAlP2,mp-9719,1.8853000000000004,3.04693469,0.0,icsd-402083,"{11: 2, 3: 1, 13: 1, 15: 2}","[3, 11, 13, 15]",31112131152,Na2Li1Al1P2
Na2LiGaAs2,mp-9722,0.6841999999999997,2.40321346,0.0,icsd-402111,"{11: 2, 3: 1, 31: 1, 33: 2}","[3, 11, 31, 33]",31112311332,Na2Li1Ga1As2
Na2LiAu3,mp-12815,0.0,3.22743742,0.0,icsd-152090,"{11: 2, 3: 1, 79: 3}","[3, 11, 79]",31112793,Na2Li1Au3
LiAl,mp-1067,0.0,4.71681619,0.0,icsd-240109,"{3: 1, 13: 1}","[3, 13]",31131,Li1Al1
LiAlSi,mp-3161,0.11209999999999987,4.89920206,0.0,icsd-52630,"{3: 1, 13: 1, 14: 1}","[3, 13, 14]",31131141,Li1Al1Si1
LiAl(PS3)2,mp-1188124,2.749,2.32661532,0.0,icsd-425979,"{3: 1, 13: 1, 15: 2, 16: 6}","[3, 13, 15, 16]",31131152166,Li1Al1P2S6
K2LiAlP2,mp-6450,1.8853,2.54664006,0.0,icsd-77275,"{19: 2, 3: 1, 13: 1, 15: 2}","[3, 13, 15, 19]",31131152192,K2Li1Al1P2
LiAlS2,mp-1106183,4.1061000000000005,5.75541248,0.0,icsd-608360,"{3: 1, 13: 1, 16: 2}","[3, 13, 16]",31131162,Li1Al1S2
LiAlCl4,mp-22983,5.5616,-1.38237934,0.0,icsd-1040,"{3: 1, 13: 1, 17: 4}","[3, 13, 17]",31131174,Li1Al1Cl4
LiAlGe,mp-5920,0.05269999999999975,4.9768912,0.0,icsd-170035,"{3: 1, 13: 1, 32: 1}","[3, 13, 32]",31131321,Li1Al1Ge1
LiAlSe2,mp-7117,3.0233,1.23473877,0.0,icsd-280225,"{3: 1, 13: 1, 34: 2}","[3, 13, 34]",31131342,Li1Al1Se2
LiAlAg2,mp-11947,0.0,5.00448206,0.0,icsd-414342,"{3: 1, 13: 1, 47: 2}","[3, 13, 47]",31131472,Li1Al1Ag2
LiAlTe2,mp-4586,2.4411,2.55454027,0.0,icsd-162672,"{3: 1, 13: 1, 52: 2}","[3, 13, 52]",31131522,Li1Al1Te2
LiAl2Rh,mp-30821,0.0,7.03547348,0.0,icsd-105509,"{3: 1, 13: 2, 45: 1}","[3, 13, 45]",31132451,Li1Al2Rh1
LiAl2Pd,mp-30817,0.0,7.66538372,0.0,icsd-105505,"{3: 1, 13: 2, 46: 1}","[3, 13, 46]",31132461,Li1Al2Pd1
LiAl2Ir,mp-11512,0.0,7.66293874,0.0,icsd-105155,"{3: 1, 13: 2, 77: 1}","[3, 13, 77]",31132771,Li1Al2Ir1
LiAl2Pt,mp-30819,0.0,8.03640257,0.0,icsd-105507,"{3: 1, 13: 2, 78: 1}","[3, 13, 78]",31132781,Li1Al2Pt1
LiCu2Si,mp-7473,0.0,8.38164014,0.0,icsd-15128,"{3: 1, 29: 2, 14: 1}","[3, 14, 29]",31141292,Li1Cu2Si1
LiYSi,mp-14208,0.0,3.79005994,0.0,icsd-262362,"{3: 1, 39: 1, 14: 1}","[3, 14, 39]",31141391,Li1Y1Si1
LiCaSi2,mp-13916,0.0,4.20375913,0.0,icsd-25327,"{3: 1, 20: 1, 14: 2}","[3, 14, 20]",31142201,Li1Ca1Si2
Li(SiRh)2,mp-975044,0.0,7.57822716,0.0,icsd-420085,"{3: 1, 14: 2, 45: 2}","[3, 14, 45]",31142452,Li1Si2Rh2
LiCeSi2,mp-1106082,0.0,6.59126829,0.0,icsd-621473,"{3: 1, 58: 1, 14: 2}","[3, 14, 58]",31142581,Li1Ce1Si2
LiCa2Si3,mp-20150,0.0,4.46303555,0.0,icsd-25322,"{3: 1, 20: 2, 14: 3}","[3, 14, 20]",31143202,Li1Ca2Si3
Sr2LiSi3,mp-15551,0.0,3.93621424,0.0,icsd-409295,"{38: 2, 3: 1, 14: 3}","[3, 14, 38]",31143382,Sr2Li1Si3
Ba2LiSi3,mp-15521,0.09229999999999983,3.65934514,0.0,icsd-404707,"{56: 2, 3: 1, 14: 3}","[3, 14, 56]",31143562,Ba2Li1Si3
LiEu2Si3,mp-581678,0.0,4.35588829,0.0,icsd-416629,"{3: 1, 63: 2, 14: 3}","[3, 14, 63]",31143632,Li1Eu2Si3
K7LiSi8,mp-3949,1.6927,1.39142849,0.0,icsd-61144,"{19: 7, 3: 1, 14: 8}","[3, 14, 19]",31148197,K7Li1Si8
LiP,mp-9588,0.8094999999999999,4.12805224,0.0,icsd-642222,"{3: 1, 15: 1}","[3, 15]",31151,Li1P1
LiZnPS4,mp-11175,2.7311999999999994,1.76933536,0.0,icsd-95785,"{3: 1, 30: 1, 15: 1, 16: 4}","[3, 15, 16, 30]",31151164301,Li1Zn1P1S4
LiEuPS4,mp-672252,0.15229999999999944,4.38011115,0.0,icsd-415208,"{3: 1, 63: 1, 15: 1, 16: 4}","[3, 15, 16, 63]",31151164631,Li1Eu1P1S4
LiCaP,mp-1211088,1.3986999999999998,4.66503179,0.0,pf-457,"{3: 1, 20: 1, 15: 1}","[3, 15, 20]",31151201,Li1Ca1P1
LiFeP,mp-20049,0.0,4.88766288,0.0,icsd-247248,"{3: 1, 26: 1, 15: 1}","[3, 15, 26]",31151261,Li1Fe1P1
LiZnP,mp-10182,1.3386,3.19037878,0.0,icsd-642242,"{3: 1, 30: 1, 15: 1}","[3, 15, 30]",31151301,Li1Zn1P1
SrLiP,mp-13276,1.3430999999999997,2.7438178,0.0,icsd-416889,"{38: 1, 3: 1, 15: 1}","[3, 15, 38]",31151381,Sr1Li1P1
BaLiP,mp-13277,0.9631000000000003,2.47323895,0.0,icsd-416890,"{56: 1, 3: 1, 15: 1}","[3, 15, 56]",31151561,Ba1Li1P1
LiEuP,mp-1211143,0.0,3.79784407,0.0,pf-30637,"{3: 1, 63: 1, 15: 1}","[3, 15, 63]",31151631,Li1Eu1P1
CsLiU(PS4)2,mp-1204089,0.15300000000000002,3.59778316,0.0,icsd-412090,"{55: 1, 3: 1, 92: 1, 15: 2, 16: 8}","[3, 15, 16, 55, 92]",31152168551921,Cs1Li1U1P2S8
Li(CuP)2,mp-7298,0.0,6.63167807,0.0,icsd-2734,"{3: 1, 29: 2, 15: 2}","[3, 15, 29]",31152292,Li1Cu2P2
LiY(CuP)2,mp-1018791,0.0,6.84716412,0.0,icsd-628287,"{3: 1, 39: 1, 29: 2, 15: 2}","[3, 15, 29, 39]",31152292391,Li1Y1Cu2P2
LiCe(CuP)2,mp-1018784,0.0,7.76826375,0.0,icsd-620884,"{3: 1, 58: 1, 29: 2, 15: 2}","[3, 15, 29, 58]",31152292581,Li1Ce1Cu2P2
LiSm(CuP)2,mp-973019,0.0,6.57985647,0.0,icsd-628285,"{3: 1, 62: 1, 29: 2, 15: 2}","[3, 15, 29, 62]",31152292621,Li1Sm1Cu2P2
LiTb(CuP)2,mp-8220,0.0,6.73577193,0.0,icsd-35589,"{3: 1, 65: 1, 29: 2, 15: 2}","[3, 15, 29, 65]",31152292651,Li1Tb1Cu2P2
Li(Co3P2)2,mp-8864,0.0,7.58931273,0.0,icsd-69692,"{3: 1, 27: 6, 15: 4}","[3, 15, 27]",31154276,Li1Co6P4
LiP7,mp-27687,1.6526999999999998,3.75757214,0.0,icsd-23621,"{3: 1, 15: 7}","[3, 15]",31157,Li1P7
KLiS,mp-8430,3.0571,0.70296883,0.0,icsd-47229,"{19: 1, 3: 1, 16: 1}","[3, 16, 19]",31161191,K1Li1S1
RbLiS,mp-8751,2.745,0.96175389,0.0,icsd-67254,"{37: 1, 3: 1, 16: 1}","[3, 16, 37]",31161371,Rb1Li1S1
LiAuS,mp-29829,1.5804,2.24890037,0.0,icsd-165259,"{3: 1, 79: 1, 16: 1}","[3, 16, 79]",31161791,Li1Au1S1
LiScS2,mp-1001786,1.4856999999999996,3.73710391,0.0,icsd-642305,"{3: 1, 21: 1, 16: 2}","[3, 16, 21]",31162211,Li1Sc1S2
LiTiS2,mp-9615,0.0,5.74106712,0.0,icsd-642322,"{3: 1, 22: 1, 16: 2}","[3, 16, 22]",31162221,Li1Ti1S2
LiCrS2,mp-4226,0.6463000000000001,4.45716663,0.0,icsd-150675,"{3: 1, 24: 1, 16: 2}","[3, 16, 24]",31162241,Li1Cr1S2
LiGaS2,mp-3647,2.9608,1.23761354,0.0,icsd-96914,"{3: 1, 31: 1, 16: 2}","[3, 16, 31]",31162311,Li1Ga1S2
LiAsS2,mp-555874,1.0664000000000002,2.81598696,0.0,icsd-419061,"{3: 1, 33: 1, 16: 2}","[3, 16, 33]",31162331,Li1As1S2
LiYS2,mp-15788,1.9203999999999994,2.93821393,0.0,icsd-44957,"{3: 1, 39: 1, 16: 2}","[3, 16, 39]",31162391,Li1Y1S2
LiZrS2,mp-1206759,0.0,5.09793255,0.0,pf-38844,"{3: 1, 40: 1, 16: 2}","[3, 16, 40]",31162401,Li1Zr1S2
LiNbS2,mp-7936,0.7134999999999998,5.91385699,0.0,icsd-26284,"{3: 1, 41: 1, 16: 2}","[3, 16, 41]",31162411,Li1Nb1S2
LiInS2,mp-1188392,2.2212,2.01076489,0.0,icsd-53093,"{3: 1, 49: 1, 16: 2}","[3, 16, 49]",31162491,Li1In1S2
LiSbS2,mp-1079885,0.09109999999999996,4.96239156,0.0,icsd-427506,"{3: 1, 51: 1, 16: 2}","[3, 16, 51]",31162511,Li1Sb1S2
LiDyS2,mp-15789,1.9346999999999999,2.78006983,0.0,icsd-44958,"{3: 1, 66: 1, 16: 2}","[3, 16, 66]",31162661,Li1Dy1S2
LiHoS2,mp-15790,1.9863000000000004,2.83587916,0.0,icsd-44959,"{3: 1, 67: 1, 16: 2}","[3, 16, 67]",31162671,Li1Ho1S2
LiErS2,mp-15791,2.0659,2.5034001,0.0,icsd-630736,"{3: 1, 68: 1, 16: 2}","[3, 16, 68]",31162681,Li1Er1S2
LiTaS2,mp-1206881,0.8540999999999999,7.22833211,0.0,pf-17930,"{3: 1, 73: 1, 16: 2}","[3, 16, 73]",31162731,Li1Ta1S2
Rb2LiVS4,mp-558815,1.5836000000000001,0.36794846,0.0,icsd-414185,"{37: 2, 3: 1, 23: 1, 16: 4}","[3, 16, 23, 37]",31164231372,Rb2Li1V1S4
Cs2LiVS4,mp-510338,1.5877999999999999,0.46980156,0.0,icsd-414186,"{55: 2, 3: 1, 23: 1, 16: 4}","[3, 16, 23, 55]",31164231552,Cs2Li1V1S4
Rb2LiNbS4,mp-553962,2.306,0.39001591,0.0,icsd-414189,"{37: 2, 3: 1, 41: 1, 16: 4}","[3, 16, 37, 41]",31164372411,Rb2Li1Nb1S4
Rb2LiTaS4,mp-556085,2.7182,0.40339118,0.0,icsd-414188,"{37: 2, 3: 1, 73: 1, 16: 4}","[3, 16, 37, 73]",31164372731,Rb2Li1Ta1S4
Cs2LiNbS4,mp-573030,2.4582,0.50775897,0.0,icsd-414187,"{55: 2, 3: 1, 41: 1, 16: 4}","[3, 16, 41, 55]",31164411552,Cs2Li1Nb1S4
LiCr4GaS8,mp-1211167,0.0,4.17340803,0.0,pf-27153,"{3: 1, 24: 4, 31: 1, 16: 8}","[3, 16, 24, 31]",31168244311,Li1Cr4Ga1S8
LiCr4InS8,mp-1211182,0.3692000000000002,4.40452044,0.0,pf-37634,"{3: 1, 24: 4, 49: 1, 16: 8}","[3, 16, 24, 49]",31168244491,Li1Cr4In1S8
LiCl,mp-22905,6.25,0.11427338,0.0,icsd-26909,"{3: 1, 17: 1}","[3, 17]",31171,Li1Cl1
LiNb6Cl19,mp-29985,0.7273000000000001,1.44447214,0.0,icsd-411688,"{3: 1, 41: 6, 17: 19}","[3, 17, 41]",311719416,Li1Nb6Cl19
CsLiCl2,mp-1188344,5.1073,-1.15429195,0.0,icsd-423634,"{55: 1, 3: 1, 17: 2}","[3, 17, 55]",31172551,Cs1Li1Cl2
LiGaCl3,mp-29344,3.6888,0.01616946,0.0,icsd-202641,"{3: 1, 31: 1, 17: 3}","[3, 17, 31]",31173311,Li1Ga1Cl3
LiFeCl4,mp-1210931,1.2679,-1.07923627,0.0,pf-37742,"{3: 1, 26: 1, 17: 4}","[3, 17, 26]",31174261,Li1Fe1Cl4
LiGaCl4,mp-28341,4.4866,-1.53798054,0.0,icsd-60849,"{3: 1, 31: 1, 17: 4}","[3, 17, 31]",31174311,Li1Ga1Cl4
Rb2LiScCl6,mp-1113928,3.7539,-0.46583333,0.0,pf-27959,"{37: 2, 3: 1, 21: 1, 17: 6}","[3, 17, 21, 37]",31176211372,Rb2Li1Sc1Cl6
Cs2LiScCl6,mp-1189625,3.8154000000000003,-0.45405275,0.0,icsd-65734,"{55: 2, 3: 1, 21: 1, 17: 6}","[3, 17, 21, 55]",31176211552,Cs2Li1Sc1Cl6
LiSc(TlCl3)2,mp-1205649,3.7702999999999998,0.60316887,0.0,pf-16188,"{3: 1, 21: 1, 81: 2, 17: 6}","[3, 17, 21, 81]",31176211812,Li1Sc1Tl2Cl6