formula,material_id,band_gap,efermi,energy_above_hull,database_IDs,comp_atoms,sorted_keys_comp_atoms,comp_number,new_formula
LiOsF6,mp-1079181,1.2041,-1.06839867,0.0,icsd-165206,"{3: 1, 76: 1, 9: 6}","[3, 9, 76]",3196761,Li1Os1F6
LiIrF6,mp-11172,0.0,-1.0192371,0.0,icsd-165207,"{3: 1, 77: 1, 9: 6}","[3, 9, 77]",3196771,Li1Ir1F6
LiPtF6,mp-1095099,0.0,-1.7612269,0.0,icsd-165208,"{3: 1, 78: 1, 9: 6}","[3, 9, 78]",3196781,Li1Pt1F6
LiAuF6,mp-1079483,1.8673,-2.6752591,0.0,icsd-165209,"{3: 1, 79: 1, 9: 6}","[3, 9, 79]",3196791,Li1Au1F6
LiBiF6,mp-27419,2.5394,-2.72308001,0.0,icsd-15119,"{3: 1, 83: 1, 9: 6}","[3, 9, 83]",3196831,Li1Bi1F6
LiSb2F7,mp-1195657,4.7225,4.64942384,0.0,icsd-428176,"{3: 1, 51: 2, 9: 7}","[3, 9, 51]",3197512,Li1Sb2F7
NaLiHo2F8,mp-1210003,7.5674,5.63266354,0.0,pf-26671,"{11: 1, 3: 1, 67: 2, 9: 8}","[3, 9, 11, 67]",3198111672,Na1Li1Ho2F8
NaLiEr2F8,mp-1209986,7.4719,5.42599398,0.0,pf-37167,"{11: 1, 3: 1, 68: 2, 9: 8}","[3, 9, 11, 68]",3198111682,Na1Li1Er2F8
NaLiTm2F8,mp-1210006,7.552,5.58964029,0.0,pf-5744,"{11: 1, 3: 1, 69: 2, 9: 8}","[3, 9, 11, 69]",3198111692,Na1Li1Tm2F8
NaLiLu2F8,mp-1209991,7.2608,-1.82208485,0.0,pf-16194,"{11: 1, 3: 1, 71: 2, 9: 8}","[3, 9, 11, 71]",3198111712,Na1Li1Lu2F8
NaLi2Sb,mp-5077,0.6796000000000002,3.71593126,0.0,icsd-54244,"{11: 1, 3: 2, 51: 1}","[3, 11, 51]",32111511,Na1Li2Sb1
Li21Si5,mp-29720,0.0,1.74554808,0.0,icsd-40751,"{3: 21, 14: 5}","[3, 14]",321145,Li21Si5
Li2Al,mp-1210753,0.0,2.42521458,0.0,pf-2757,"{3: 2, 13: 1}","[3, 13]",32131,Li2Al1
Li2AlPd,mp-30816,0.0,4.29869488,0.0,icsd-105504,"{3: 2, 13: 1, 46: 1}","[3, 13, 46]",32131461,Li2Al1Pd1
Li2AlAg,mp-31168,0.0,4.09973473,0.0,icsd-57330,"{3: 2, 13: 1, 47: 1}","[3, 13, 47]",32131471,Li2Al1Ag1
Li2AlPt,mp-30818,0.0,5.19577874,0.0,icsd-105506,"{3: 2, 13: 1, 78: 1}","[3, 13, 78]",32131781,Li2Al1Pt1
Li2SiS3,mp-1210789,3.1776999999999997,4.80292489,0.0,pf-6281,"{3: 2, 14: 1, 16: 3}","[3, 14, 16]",32141163,Li2Si1S3
Li2ZnSi,mp-571566,0.0,3.07497845,0.0,icsd-16221,"{3: 2, 30: 1, 14: 1}","[3, 14, 30]",32141301,Li2Zn1Si1
BaLi2Si,mp-27454,0.0,2.47355483,0.0,icsd-15642,"{56: 1, 3: 2, 14: 1}","[3, 14, 56]",32141561,Ba1Li2Si1
Li2La2Si3,mp-1104121,0.0,6.6136202,0.0,icsd-423611,"{3: 2, 57: 2, 14: 3}","[3, 14, 57]",32143572,Li2La2Si3
Li2Ce2Si3,mp-1210884,0.0,6.45645267,0.0,pf-8220,"{3: 2, 58: 2, 14: 3}","[3, 14, 58]",32143582,Li2Ce2Si3
Li2Pr2Si3,mp-1210780,0.0,4.66386285,0.0,pf-18390,"{3: 2, 59: 2, 14: 3}","[3, 14, 59]",32143592,Li2Pr2Si3
Li2Nd2Si3,mp-571109,0.0,4.65758307,0.0,icsd-152650,"{3: 2, 60: 2, 14: 3}","[3, 14, 60]",32143602,Li2Nd2Si3
Li2Sm2Si3,mp-1210778,0.0,4.66176541,0.0,pf-28924,"{3: 2, 62: 2, 14: 3}","[3, 14, 62]",32143622,Li2Sm2Si3
Li2CuP,mp-12029,0.0,4.62904043,0.0,icsd-240250,"{3: 2, 29: 1, 15: 1}","[3, 15, 29]",32151291,Li2Cu1P1
Ba4Li2(CdP2)3,mp-1192527,0.48530000000000006,3.17347896,0.0,icsd-427777,"{56: 4, 3: 2, 48: 3, 15: 6}","[3, 15, 48, 56]",32156483564,Ba4Li2Cd3P6
Li2Co12P7,mp-1191829,0.0,7.29679151,0.0,icsd-656419,"{3: 2, 27: 12, 15: 7}","[3, 15, 27]",321572712,Li2Co12P7
Li2S,mp-1153,3.3862000000000005,0.7595844,0.0,icsd-657597,"{3: 2, 16: 1}","[3, 16]",32161,Li2S1
Li2TeS3,mp-558731,1.0825,3.22956619,0.0,icsd-415120,"{3: 2, 52: 1, 16: 3}","[3, 16, 52]",32163521,Li2Te1S3
Li2US3,mp-15885,0.0,5.16305574,0.0,icsd-88095,"{3: 2, 92: 1, 16: 3}","[3, 16, 92]",32163921,Li2U1S3
Li2MnSnS4,mp-1105291,0.07069999999999999,2.98111695,0.0,icsd-429816,"{3: 2, 25: 1, 50: 1, 16: 4}","[3, 16, 25, 50]",32164251501,Li2Mn1Sn1S4
Li2ZnGeS4,mp-1210804,2.1846,3.44060332,0.0,pf-11604,"{3: 2, 30: 1, 32: 1, 16: 4}","[3, 16, 30, 32]",32164301321,Li2Zn1Ge1S4
Li2ZnSnS4,mp-555186,2.3137,1.67984415,0.0,icsd-419595,"{3: 2, 30: 1, 50: 1, 16: 4}","[3, 16, 30, 50]",32164301501,Li2Zn1Sn1S4
Li2CdGeS4,mp-1189383,2.2472,0.881518,0.0,icsd-249872,"{3: 2, 48: 1, 32: 1, 16: 4}","[3, 16, 32, 48]",32164321481,Li2Cd1Ge1S4
Li2EuGeS4,mp-629443,0.20210000000000017,3.97579744,0.0,icsd-281012,"{3: 2, 63: 1, 32: 1, 16: 4}","[3, 16, 32, 63]",32164321631,Li2Eu1Ge1S4
Li2GePbS4,mp-19896,2.2649000000000004,2.76233331,0.0,icsd-281011,"{3: 2, 32: 1, 82: 1, 16: 4}","[3, 16, 32, 82]",32164321821,Li2Ge1Pb1S4
Li2CdSnS4,mp-1188784,1.9513,1.35910547,0.0,icsd-249873,"{3: 2, 48: 1, 50: 1, 16: 4}","[3, 16, 48, 50]",32164481501,Li2Cd1Sn1S4
CsLi2Cl3,mp-1190687,5.326,4.10848618,0.0,icsd-423635,"{55: 1, 3: 2, 17: 3}","[3, 17, 55]",32173551,Cs1Li2Cl3
Li2ZnCl4,mp-22961,4.1422,-0.29842552,0.0,icsd-402398,"{3: 2, 30: 1, 17: 4}","[3, 17, 30]",32174301,Li2Zn1Cl4
KLi2As,mp-28994,0.6878,0.93729651,0.0,icsd-78938,"{19: 1, 3: 2, 33: 1}","[3, 19, 33]",32191331,K1Li2As1
Li2Ca,mp-570466,0.0,1.04029569,0.0,icsd-619390,"{3: 2, 20: 1}","[3, 20]",32201,Li2Ca1
Li22(Cu3Si2)7,mp-1212343,0.05140000000000011,4.94975227,0.0,pf-35389,"{3: 22, 29: 21, 14: 14}","[3, 14, 29]",32214142921,Li22Cu21Si14
Li2CuAs,mp-15686,0.0,3.87827578,0.0,icsd-43938,"{3: 2, 29: 1, 33: 1}","[3, 29, 33]",32291331,Li2Cu1As1
Li2CuSn,mp-30591,0.0,6.38572698,0.0,icsd-103043,"{3: 2, 29: 1, 50: 1}","[3, 29, 50]",32291501,Li2Cu1Sn1
Li2CuSn2,mp-1078460,0.0,5.41778126,0.0,icsd-426084,"{3: 2, 29: 1, 50: 2}","[3, 29, 50]",32291502,Li2Cu1Sn2
Li2ZnGe,mp-569115,0.0,2.11909014,0.0,icsd-53678,"{3: 2, 30: 1, 32: 1}","[3, 30, 32]",32301321,Li2Zn1Ge1
Li2Ga,mp-29210,0.0,1.90765537,0.0,icsd-659761,"{3: 2, 31: 1}","[3, 31]",32311,Li2Ga1
Li2GaRh,mp-2988,0.0,2.88694437,0.0,icsd-106714,"{3: 2, 31: 1, 45: 1}","[3, 31, 45]",32311451,Li2Ga1Rh1
Li2GaPd,mp-3201,0.0,3.31257964,0.0,icsd-634537,"{3: 2, 31: 1, 46: 1}","[3, 31, 46]",32311461,Li2Ga1Pd1
Li2GaIr,mp-31441,0.0,4.14731895,0.0,icsd-107085,"{3: 2, 31: 1, 77: 1}","[3, 31, 77]",32311771,Li2Ga1Ir1
Li2GaPt,mp-3726,0.0,4.11499346,0.0,icsd-107086,"{3: 2, 31: 1, 78: 1}","[3, 31, 78]",32311781,Li2Ga1Pt1
Li2GaAu,mp-30381,0.0,3.45617342,0.0,icsd-58461,"{3: 2, 31: 1, 79: 1}","[3, 31, 79]",32311791,Li2Ga1Au1
Li2GeAu,mp-2935,0.0,3.22440307,0.0,icsd-52668,"{3: 2, 32: 1, 79: 1}","[3, 32, 79]",32321791,Li2Ge1Au1
Li2Pr2Ge3,mp-1104368,0.0,3.42469939,0.0,icsd-262436,"{3: 2, 59: 2, 32: 3}","[3, 32, 59]",32323592,Li2Pr2Ge3
Li2Nd2Ge3,mp-1104331,0.0,3.42981702,0.0,icsd-262433,"{3: 2, 60: 2, 32: 3}","[3, 32, 60]",32323602,Li2Nd2Ge3
Li2Sm2Ge3,mp-1104144,0.0,3.3642129,0.0,icsd-262438,"{3: 2, 62: 2, 32: 3}","[3, 32, 62]",32323622,Li2Sm2Ge3
Ba4Li2(CdAs2)3,mp-1192557,0.3498999999999999,2.64837264,0.0,icsd-427778,"{56: 4, 3: 2, 48: 3, 33: 6}","[3, 33, 48, 56]",32336483564,Ba4Li2Cd3As6
Li2Se,mp-2286,2.9746,0.4075048,0.0,icsd-168446,"{3: 2, 34: 1}","[3, 34]",32341,Li2Se1
Li2SnSe3,mp-1095291,1.4796999999999998,1.08467778,0.0,icsd-193769,"{3: 2, 50: 1, 34: 3}","[3, 34, 50]",32343501,Li2Sn1Se3
Li2Y5In9,mp-638690,0.0,5.57720263,0.0,icsd-170872,"{3: 2, 39: 5, 49: 9}","[3, 39, 49]",32395499,Li2Y5In9
Li2BeSiO4,mp-8070,6.046099999999999,1.62870682,0.0,icsd-193838,"{3: 2, 4: 1, 14: 1, 8: 4}","[3, 4, 8, 14]",324184141,Li2Be1Si1O4
Li2BeF4,mp-4622,7.722300000000001,-3.59855049,0.0,icsd-72422,"{3: 2, 4: 1, 9: 4}","[3, 4, 9]",324194,Li2Be1F4
RbLi2Be2F7,mp-560518,7.2125,-3.55336354,0.0,icsd-72,"{37: 1, 3: 2, 4: 2, 9: 7}","[3, 4, 9, 37]",324297371,Rb1Li2Be2F7
Li2Ca3Be3Si3(O6F)2,mp-560036,5.843100000000001,1.53060003,0.0,icsd-39389,"{3: 2, 20: 3, 4: 3, 14: 3, 8: 12, 9: 2}","[3, 4, 8, 9, 14, 20]",324381292143203,Li2Ca3Be3Si3O12F2
Li2InRh,mp-31442,0.0,4.36802558,0.0,icsd-107087,"{3: 2, 49: 1, 45: 1}","[3, 45, 49]",32451491,Li2In1Rh1
Li2Pd,mp-728,0.0,2.17428354,0.0,icsd-104773,"{3: 2, 46: 1}","[3, 46]",32461,Li2Pd1
Li2InPd,mp-21029,0.0,4.6858164,0.0,icsd-107088,"{3: 2, 49: 1, 46: 1}","[3, 46, 49]",32461491,Li2In1Pd1
Li2SbPd,mp-10180,0.0,6.15612865,0.0,icsd-44816,"{3: 2, 51: 1, 46: 1}","[3, 46, 51]",32461511,Li2Sb1Pd1
Li2InAg,mp-30344,0.0,4.59467378,0.0,icsd-58292,"{3: 2, 49: 1, 47: 1}","[3, 47, 49]",32471491,Li2In1Ag1
Li2AgSn,mp-567347,0.0,5.2510344,0.0,icsd-58318,"{3: 2, 47: 1, 50: 1}","[3, 47, 50]",32471501,Li2Ag1Sn1
Li2AgSn2,mp-1080714,0.0,4.34297902,0.0,icsd-426085,"{3: 2, 47: 1, 50: 2}","[3, 47, 50]",32471502,Li2Ag1Sn2
Li2AgSb,mp-16238,0.14780000000000015,5.22984957,0.0,icsd-52589,"{3: 2, 47: 1, 51: 1}","[3, 47, 51]",32471511,Li2Ag1Sb1
Li2AgPb,mp-30349,0.0,4.82511168,0.0,icsd-58314,"{3: 2, 47: 1, 82: 1}","[3, 47, 82]",32471821,Li2Ag1Pb1
Li2CdSn,mp-12580,0.0,4.48733032,0.0,icsd-108223,"{3: 2, 48: 1, 50: 1}","[3, 48, 50]",32481501,Li2Cd1Sn1
Li2CdPb,mp-11305,0.0,4.28671429,0.0,icsd-102016,"{3: 2, 48: 1, 82: 1}","[3, 48, 82]",32481821,Li2Cd1Pb1
Li2In,mp-31324,0.0,4.10054438,0.0,icsd-659830,"{3: 2, 49: 1}","[3, 49]",32491,Li2In1
Li2InPt,mp-21026,0.0,4.82473178,0.0,icsd-107090,"{3: 2, 49: 1, 78: 1}","[3, 49, 78]",32491781,Li2In1Pt1
Li2InAu,mp-30392,0.0,5.34691657,0.0,icsd-58497,"{3: 2, 49: 1, 79: 1}","[3, 49, 79]",32491791,Li2In1Au1
Li2SnAu,mp-30405,0.0,6.07598557,0.0,icsd-58533,"{3: 2, 50: 1, 79: 1}","[3, 50, 79]",32501791,Li2Sn1Au1
Li2Sn2Au,mp-31496,0.0,5.03362311,0.0,icsd-192982,"{3: 2, 50: 2, 79: 1}","[3, 50, 79]",32502791,Li2Sn2Au1
Li2Ce5Sn7,mp-1212397,0.0,7.20420576,0.0,pf-7993,"{3: 2, 58: 5, 50: 7}","[3, 50, 58]",32507585,Li2Ce5Sn7
Li2Pr5Sn7,mp-1211048,0.0,5.68050045,0.0,pf-18507,"{3: 2, 59: 5, 50: 7}","[3, 50, 59]",32507595,Li2Pr5Sn7
Li2Sm5Sn7,mp-1197729,0.0,5.67149421,0.0,icsd-250546,"{3: 2, 62: 5, 50: 7}","[3, 50, 62]",32507625,Li2Sm5Sn7
CsLi2BS3,mp-559238,3.0936,1.03402792,0.0,icsd-411530,"{55: 1, 3: 2, 5: 1, 16: 3}","[3, 5, 16, 55]",3251163551,Cs1Li2B1S3
Li2SbPt,mp-3158,0.0,6.39937755,0.0,icsd-44895,"{3: 2, 51: 1, 78: 1}","[3, 51, 78]",32511781,Li2Sb1Pt1
Li2SbAu,mp-30404,0.0,6.0566162,0.0,icsd-58529,"{3: 2, 51: 1, 79: 1}","[3, 51, 79]",32511791,Li2Sb1Au1
Li2BPd3,mp-20657,0.0,3.51535824,0.0,icsd-246447,"{3: 2, 5: 1, 46: 3}","[3, 5, 46]",3251463,Li2B1Pd3
Li2BPt3,mp-20234,0.0,4.77857463,0.0,icsd-84932,"{3: 2, 5: 1, 78: 3}","[3, 5, 78]",3251783,Li2B1Pt3
NaLi2BO3,mp-560189,3.8727,0.75362855,0.0,icsd-62532,"{11: 1, 3: 2, 5: 1, 8: 3}","[3, 5, 8, 11]",325183111,Na1Li2B1O3
KLi2BO3,mp-558628,3.999,-0.02278641,0.0,icsd-48177,"{19: 1, 3: 2, 5: 1, 8: 3}","[3, 5, 8, 19]",325183191,K1Li2B1O3
NaLi2B(PO4)2,mp-1020646,5.8332999999999995,0.88492039,0.0,icsd-291512,"{11: 1, 3: 2, 5: 1, 15: 2, 8: 8}","[3, 5, 8, 11, 15]",325188111152,Na1Li2B1P2O8
Li2Te,mp-2530,2.4914,2.26399067,0.0,icsd-60434,"{3: 2, 52: 1}","[3, 52]",32521,Li2Te1
Li2B2S5,mp-29410,2.4427000000000003,1.56533848,0.0,icsd-401723,"{3: 2, 5: 2, 16: 5}","[3, 5, 16]",3252165,Li2B2S5
Li2B2Se5,mp-30100,1.7046999999999999,2.59944206,0.0,icsd-411410,"{3: 2, 5: 2, 34: 5}","[3, 5, 34]",3252345,Li2B2Se5
Li2B2Rh3,mp-605839,0.0,5.14140466,0.0,icsd-417442,"{3: 2, 5: 2, 45: 3}","[3, 5, 45]",3252453,Li2B2Rh3
Cs2Li2B2P4O15,mp-1019606,5.4224000000000006,0.47190838,0.0,icsd-424281,"{55: 2, 3: 2, 5: 2, 15: 4, 8: 15}","[3, 5, 8, 15, 55]",3252815154552,Cs2Li2B2P4O15
Cs3NaLi2(BO3)2,mp-607931,3.4539999999999997,0.94143611,0.0,icsd-36531,"{55: 3, 11: 1, 3: 2, 5: 2, 8: 6}","[3, 5, 8, 11, 55]",325286111553,Cs3Na1Li2B2O6
Li2UI6,mp-570813,0.0,2.36542801,0.0,icsd-83297,"{3: 2, 92: 1, 53: 6}","[3, 53, 92]",32536921,Li2U1I6
Li2B3O4F3,mp-1196457,6.573499999999999,-1.83500441,0.0,icsd-423661,"{3: 2, 5: 3, 8: 4, 9: 3}","[3, 5, 8, 9]",32538493,Li2B3O4F3
Li2B3PO8,mp-1020015,5.4366,0.45074699,0.0,icsd-192496,"{3: 2, 5: 3, 15: 1, 8: 8}","[3, 5, 8, 15]",325388151,Li2B3P1O8
Li2Al(BO2)5,mp-557177,5.6317,-0.07480131,0.0,icsd-279578,"{3: 2, 13: 1, 5: 5, 8: 10}","[3, 5, 8, 13]",3255810131,Li2Al1B5O10
CsLi2Gd4(BO3)5,mp-1197930,2.5666,1.30401681,0.0,icsd-240894,"{55: 1, 3: 2, 64: 4, 5: 5, 8: 15}","[3, 5, 8, 55, 64]",3255815551644,Cs1Li2Gd4B5O15
K3Ba3Li2Al4B6O20F,mp-1195057,4.1017,4.59556733,0.0,icsd-291596,"{19: 3, 56: 3, 3: 2, 13: 4, 5: 6, 8: 20, 9: 1}","[3, 5, 8, 9, 13, 19, 56]",325682091134193563,K3Ba3Li2Al4B6O20F1
Li2B6O9F2,mp-1200209,6.2705,-1.04078464,0.0,icsd-423435,"{3: 2, 5: 6, 8: 9, 9: 2}","[3, 5, 8, 9]",32568992,Li2B6O9F2
Li2B8SeO15,mp-1198324,4.8776,4.3855484,0.0,icsd-424079,"{3: 2, 5: 8, 34: 1, 8: 15}","[3, 5, 8, 34]",3258815341,Li2B8Se1O15
Li2CN2,mp-9610,3.7395,0.58882221,0.0,icsd-200369,"{3: 2, 6: 1, 7: 2}","[3, 6, 7]",326172,Li2C1N2
Li2CO3,mp-3054,5.0573999999999995,-0.1416317,0.0,icsd-66942,"{3: 2, 6: 1, 8: 3}","[3, 6, 8]",326183,Li2C1O3
RbLi2CdC2O6F,mp-1192391,3.2753,-0.13419881,0.0,icsd-710094,"{37: 1, 3: 2, 48: 1, 6: 2, 8: 6, 9: 1}","[3, 6, 8, 9, 37, 48]",32628691371481,Rb1Li2Cd1C2O6F1
Li2PNO2,mp-1020019,5.3528,2.28668453,0.0,icsd-188494,"{3: 2, 15: 1, 7: 1, 8: 2}","[3, 7, 8, 15]",327182151,Li2P1N1O2
Li2SiN2,mp-684024,3.8508,3.60405319,0.0,icsd-420126,"{3: 2, 14: 1, 7: 2}","[3, 7, 14]",3272141,Li2Si1N2
Li2ZrN2,mp-3216,1.5618999999999996,4.05832841,0.0,icsd-78790,"{3: 2, 40: 1, 7: 2}","[3, 7, 40]",3272401,Li2Zr1N2
Li2CeN2,mp-8181,1.2035999999999998,5.07943776,0.0,icsd-34003,"{3: 2, 58: 1, 7: 2}","[3, 7, 58]",3272581,Li2Ce1N2
Li2HfN2,mp-1097065,1.9346,5.43013074,0.0,pf-36313,"{3: 2, 72: 1, 7: 2}","[3, 7, 72]",3272721,Li2Hf1N2
SrLi2CrN3,mp-629430,0.6200999999999999,3.22329819,0.0,icsd-412247,"{38: 1, 3: 2, 24: 1, 7: 3}","[3, 7, 24, 38]",3273241381,Sr1Li2Cr1N3
Li2Ca(SiN2)2,mp-1199122,3.4657999999999998,4.64486151,0.0,icsd-421548,"{3: 2, 20: 1, 14: 2, 7: 4}","[3, 7, 14, 20]",3274142201,Li2Ca1Si2N4
SrLi2(SiN2)2,mp-978840,3.2439999999999998,4.29037223,0.0,icsd-421549,"{38: 1, 3: 2, 14: 2, 7: 4}","[3, 7, 14, 38]",3274142381,Sr1Li2Si2N4
Li2Ta3N5,mp-28523,0.0,6.20501039,0.0,icsd-40568,"{3: 2, 73: 3, 7: 5}","[3, 7, 73]",3275733,Li2Ta3N5
Li2La(NO3)5,mp-1211252,3.7223,3.36941742,0.0,pf-12886,"{3: 2, 57: 1, 7: 5, 8: 15}","[3, 7, 8, 57]",3275815571,Li2La1N5O15
Li2Pr(NO3)5,mp-555979,3.6557,-0.88703518,0.0,icsd-300254,"{3: 2, 59: 1, 7: 5, 8: 15}","[3, 7, 8, 59]",3275815591,Li2Pr1N5O15
Li2Nd(NO3)5,mp-1211215,3.6948,2.90247692,0.0,pf-23394,"{3: 2, 60: 1, 7: 5, 8: 15}","[3, 7, 8, 60]",3275815601,Li2Nd1N5O15
Li2Sm(NO3)5,mp-1211322,3.6957000000000004,2.94582064,0.0,pf-33895,"{3: 2, 62: 1, 7: 5, 8: 15}","[3, 7, 8, 62]",3275815621,Li2Sm1N5O15
Li2Pt,mp-2170,0.0,3.15388196,0.0,icsd-642278,"{3: 2, 78: 1}","[3, 78]",32781,Li2Pt1
Sr4Li2Si4N8O,mp-1020592,2.1826999999999996,4.51797168,0.0,icsd-420677,"{38: 4, 3: 2, 14: 4, 7: 8, 8: 1}","[3, 7, 8, 14, 38]",327881144384,Sr4Li2Si4N8O1
Li2O,mp-1960,4.8986,-0.00053712,0.0,icsd-57411,"{3: 2, 8: 1}","[3, 8]",3281,Li2O1
Li2U(MoO5)2,mp-560793,2.4115,-0.52758721,0.0,icsd-98566,"{3: 2, 92: 1, 42: 2, 8: 10}","[3, 8, 42, 92]",32810422921,Li2U1Mo2O10
Li2Tl,mp-1077191,0.0,3.47498453,0.0,icsd-642401,"{3: 2, 81: 1}","[3, 81]",32811,Li2Tl1
Li2Fe2(MoO4)3,mp-21778,2.6563999999999997,0.34224335,0.0,icsd-201938,"{3: 2, 26: 2, 42: 3, 8: 12}","[3, 8, 26, 42]",32812262423,Li2Fe2Mo3O12
Li2Co3(SeO3)4,mp-562404,2.6422,1.8704249,0.0,icsd-89649,"{3: 2, 27: 3, 34: 4, 8: 12}","[3, 8, 27, 34]",32812273344,Li2Co3Se4O12
NaLi2Mo2P3O14,mp-559443,0.0,3.08592224,0.0,icsd-84703,"{11: 1, 3: 2, 42: 2, 15: 3, 8: 14}","[3, 8, 11, 15, 42]",32814111153422,Na1Li2Mo2P3O14
SrLi2Ti6O14,mp-16691,2.8389000000000006,1.69320226,0.0,icsd-95908,"{38: 1, 3: 2, 22: 6, 8: 14}","[3, 8, 22, 38]",32814226381,Sr1Li2Ti6O14
BaLi2Ti6O14,mp-558083,2.8907999999999996,4.35233346,0.0,icsd-152568,"{56: 1, 3: 2, 22: 6, 8: 14}","[3, 8, 22, 56]",32814226561,Ba1Li2Ti6O14
Li2Ti6PbO14,mp-558619,2.6323999999999996,2.32373704,0.0,icsd-152567,"{3: 2, 22: 6, 82: 1, 8: 14}","[3, 8, 22, 82]",32814226821,Li2Ti6Pb1O14
Li2Cu3(Se2O7)2,mp-1198048,0.6886000000000001,1.38920699,0.0,icsd-74685,"{3: 2, 29: 3, 34: 4, 8: 14}","[3, 8, 29, 34]",32814293344,Li2Cu3Se4O14
Cs4Li2(Si2O5)3,mp-562394,4.1657,0.86740964,0.0,icsd-78565,"{55: 4, 3: 2, 14: 6, 8: 15}","[3, 8, 14, 55]",32815146554,Cs4Li2Si6O15
Li2U3P2O15,mp-559539,2.2683,1.01962904,0.0,icsd-173881,"{3: 2, 92: 3, 15: 2, 8: 15}","[3, 8, 15, 92]",32815152923,Li2U3P2O15
Li2U3V2O15,mp-554685,1.9974,0.49490747,0.0,icsd-245511,"{3: 2, 92: 3, 23: 2, 8: 15}","[3, 8, 23, 92]",32815232923,Li2U3V2O15
Li2O2,mp-841,1.9742999999999997,1.48740273,0.0,icsd-180557,"{3: 2, 8: 2}","[3, 8]",3282,Li2O2
Li2U3(PO5)4,mp-558910,2.1386000000000003,0.9127705,0.0,icsd-246191,"{3: 2, 92: 3, 15: 4, 8: 20}","[3, 8, 15, 92]",32820154923,Li2U3P4O20
Li2PdO2,mp-7608,1.1973000000000003,2.73987329,0.0,icsd-19007,"{3: 2, 46: 1, 8: 2}","[3, 8, 46]",3282461,Li2Pd1O2
Li2HgO2,mp-1206880,1.1767,2.15678336,0.0,pf-28550,"{3: 2, 80: 1, 8: 2}","[3, 8, 80]",3282801,Li2Hg1O2
Li2SiO3,mp-5012,5.0766,1.28537734,0.0,icsd-28192,"{3: 2, 14: 1, 8: 3}","[3, 8, 14]",3283141,Li2Si1O3
Li2TiO3,mp-2931,3.0338000000000003,1.94520889,0.0,icsd-162215,"{3: 2, 22: 1, 8: 3}","[3, 8, 22]",3283221,Li2Ti1O3
Li2MnO3,mp-18988,1.3683999999999998,2.45687681,0.0,icsd-187500,"{3: 2, 25: 1, 8: 3}","[3, 8, 25]",3283251,Li2Mn1O3
Li2GeO3,mp-15349,3.568,-0.10069169,0.0,icsd-100403,"{3: 2, 32: 1, 8: 3}","[3, 8, 32]",3283321,Li2Ge1O3
Li2ZrO3,mp-4156,3.7336,1.16496928,0.0,icsd-94897,"{3: 2, 40: 1, 8: 3}","[3, 8, 40]",3283401,Li2Zr1O3
Li2TcO3,mp-1210877,0.4090000000000007,5.04050279,0.0,pf-18506,"{3: 2, 43: 1, 8: 3}","[3, 8, 43]",3283431,Li2Tc1O3
Li2RuO3,mp-4630,0.0,3.6679149,0.0,icsd-180367,"{3: 2, 44: 1, 8: 3}","[3, 8, 44]",3283441,Li2Ru1O3
Li2SnO3,mp-3540,3.1283000000000003,3.21578022,0.0,icsd-21032,"{3: 2, 50: 1, 8: 3}","[3, 8, 50]",3283501,Li2Sn1O3
Li2TeO3,mp-27231,3.5802,0.99783234,0.0,icsd-4317,"{3: 2, 52: 1, 8: 3}","[3, 8, 52]",3283521,Li2Te1O3
Li2PbO3,mp-22450,1.044,2.87739626,0.0,icsd-35182,"{3: 2, 82: 1, 8: 3}","[3, 8, 82]",3283821,Li2Pb1O3
Li2Ta2(OF2)3,mp-561011,3.8335999999999997,-2.20104353,0.0,icsd-405777,"{3: 2, 73: 2, 8: 3, 9: 6}","[3, 8, 9, 73]",328396732,Li2Ta2O3F6
NaLi2PO4,mp-558045,5.1689,0.77077281,0.0,icsd-69967,"{11: 1, 3: 2, 15: 1, 8: 4}","[3, 8, 11, 15]",3284111151,Na1Li2P1O4
NaLi2AsO4,mp-9066,3.8891,0.00401885,0.0,icsd-73200,"{11: 1, 3: 2, 33: 1, 8: 4}","[3, 8, 11, 33]",3284111331,Na1Li2As1O4
Li2CaSiO4,mp-7610,5.189699999999999,2.02386337,0.0,icsd-19023,"{3: 2, 20: 1, 14: 1, 8: 4}","[3, 8, 14, 20]",3284141201,Li2Ca1Si1O4
Li2MnSiO4,mp-559240,3.0521000000000003,2.02819493,0.0,icsd-161305,"{3: 2, 25: 1, 14: 1, 8: 4}","[3, 8, 14, 25]",3284141251,Li2Mn1Si1O4
Li2FeSiO4,mp-18968,3.1235999999999997,2.15053799,0.0,icsd-186516,"{3: 2, 26: 1, 14: 1, 8: 4}","[3, 8, 14, 26]",3284141261,Li2Fe1Si1O4
Li2ZnSiO4,mp-17288,3.6329999999999996,0.84741641,0.0,icsd-8237,"{3: 2, 30: 1, 14: 1, 8: 4}","[3, 8, 14, 30]",3284141301,Li2Zn1Si1O4
Rb2Li2SiO4,mp-8449,3.8516,0.85861212,0.0,icsd-61086,"{37: 2, 3: 2, 14: 1, 8: 4}","[3, 8, 14, 37]",3284141372,Rb2Li2Si1O4
SrLi2SiO4,mp-1191141,4.6377,1.33067714,0.0,icsd-167334,"{38: 1, 3: 2, 14: 1, 8: 4}","[3, 8, 14, 38]",3284141381,Sr1Li2Si1O4
Li2CdSiO4,mp-557293,2.8338,0.7488881,0.0,icsd-1113,"{3: 2, 48: 1, 14: 1, 8: 4}","[3, 8, 14, 48]",3284141481,Li2Cd1Si1O4
Cs2Li2SiO4,mp-504849,3.8531000000000004,1.65742082,0.0,icsd-33809,"{55: 2, 3: 2, 14: 1, 8: 4}","[3, 8, 14, 55]",3284141552,Cs2Li2Si1O4
BaLi2SiO4,mp-558310,4.3896,1.55200413,0.0,icsd-180289,"{56: 1, 3: 2, 14: 1, 8: 4}","[3, 8, 14, 56]",3284141561,Ba1Li2Si1O4
Li2EuSiO4,mp-14629,0.04330000000000034,5.54152359,0.0,icsd-50442,"{3: 2, 63: 1, 14: 1, 8: 4}","[3, 8, 14, 63]",3284141631,Li2Eu1Si1O4
Li2SO4,mp-4556,6.1674,-0.57835903,0.0,icsd-30276,"{3: 2, 16: 1, 8: 4}","[3, 8, 16]",3284161,Li2S1O4
Li2CaGeO4,mp-7611,4.1135,0.91971225,0.0,icsd-19024,"{3: 2, 20: 1, 32: 1, 8: 4}","[3, 8, 20, 32]",3284201321,Li2Ca1Ge1O4
Cs2Li2TiO4,mp-8294,3.9553999999999996,0.7541609,0.0,icsd-33810,"{55: 2, 3: 2, 22: 1, 8: 4}","[3, 8, 22, 55]",3284221552,Cs2Li2Ti1O4
Li2CrO4,mp-17159,2.6021,-1.55661831,0.0,icsd-1972,"{3: 2, 24: 1, 8: 4}","[3, 8, 24]",3284241,Li2Cr1O4
Li2MnGeO4,mp-1210796,2.0368,1.53247792,0.0,pf-4548,"{3: 2, 25: 1, 32: 1, 8: 4}","[3, 8, 25, 32]",3284251321,Li2Mn1Ge1O4
Li2FeGeO4,mp-1210923,2.1565,1.34686004,0.0,pf-36012,"{3: 2, 26: 1, 32: 1, 8: 4}","[3, 8, 26, 32]",3284261321,Li2Fe1Ge1O4
Li2ZnGeO4,mp-8184,3.1053,0.07629145,0.0,icsd-34362,"{3: 2, 30: 1, 32: 1, 8: 4}","[3, 8, 30, 32]",3284301321,Li2Zn1Ge1O4
Rb2Li2GeO4,mp-8450,3.3651,0.16483644,0.0,icsd-61087,"{37: 2, 3: 2, 32: 1, 8: 4}","[3, 8, 32, 37]",3284321372,Rb2Li2Ge1O4
Li2CdGeO4,mp-7688,2.455,-0.03482247,0.0,icsd-20031,"{3: 2, 48: 1, 32: 1, 8: 4}","[3, 8, 32, 48]",3284321481,Li2Cd1Ge1O4