formula,material_id,band_gap,efermi,energy_above_hull,database_IDs,comp_atoms,sorted_keys_comp_atoms,comp_number,new_formula
Rb4Mg3H10,mp-24662,3.4271,-0.38746378,0.0,icsd-76501,"{37: 4, 12: 3, 1: 10}","[1, 12, 37]",110123374,Rb4Mg3H10
Cs4Mg3H10,mp-697948,3.2805,0.33736678,0.0,icsd-162262,"{55: 4, 12: 3, 1: 10}","[1, 12, 55]",110123554,Cs4Mg3H10
Ba2Mg3H10,mp-733604,3.0265000000000004,0.72886567,0.0,icsd-79589,"{56: 2, 12: 3, 1: 10}","[1, 12, 56]",110123562,Ba2Mg3H10
NaMgAs,mp-5962,0.9547999999999996,2.33059048,0.0,icsd-41798,"{11: 1, 12: 1, 33: 1}","[11, 12, 33]",111121331,Na1Mg1As1
NaMgSb,mp-7090,1.0359000000000003,3.3123485,0.0,icsd-41797,"{11: 1, 12: 1, 51: 1}","[11, 12, 51]",111121511,Na1Mg1Sb1
K6Na14MgTl18,mp-1198979,0.0253000000000001,3.10853957,0.0,icsd-404695,"{19: 6, 11: 14, 12: 1, 81: 18}","[11, 12, 19, 81]",11141211968118,K6Na14Mg1Tl18
Na2MgSn,mp-865625,0.0,2.83008426,0.0,icsd-262676,"{11: 2, 12: 1, 50: 1}","[11, 12, 50]",112121501,Na2Mg1Sn1
Na2MgPb,mp-1078372,0.0,2.83769639,0.0,icsd-238202,"{11: 2, 12: 1, 82: 1}","[11, 12, 82]",112121821,Na2Mg1Pb1
MgH12(NO6)2,mp-734042,3.5098000000000003,-1.57135616,0.0,icsd-80445,"{12: 1, 1: 12, 7: 2, 8: 12}","[1, 7, 8, 12]",11272812121,Mg1H12N2O12
RbMgP(H6O5)2,mp-604725,4.7947999999999995,-0.84566679,0.0,icsd-419834,"{37: 1, 12: 1, 15: 1, 1: 12, 8: 10}","[1, 8, 12, 15, 37]",112810121151371,Rb1Mg1P1H12O10
CsMgP(H6O5)2,mp-761178,4.8246,-0.78399607,0.0,icsd-281563,"{55: 1, 12: 1, 15: 1, 1: 12, 8: 10}","[1, 8, 12, 15, 55]",112810121151551,Cs1Mg1P1H12O10
MgTlP(H6O5)2,mp-554894,4.5212,-0.1512606,0.0,icsd-419837,"{12: 1, 81: 1, 15: 1, 1: 12, 8: 10}","[1, 8, 12, 15, 81]",112810121151811,Mg1Tl1P1H12O10
RbMgAs(H6O5)2,mp-559463,4.2177,-1.24334833,0.0,icsd-419835,"{37: 1, 12: 1, 33: 1, 1: 12, 8: 10}","[1, 8, 12, 33, 37]",112810121331371,Rb1Mg1As1H12O10
CsMgAs(H6O5)2,mp-1193046,4.2896,-1.23019297,0.0,icsd-260150,"{55: 1, 12: 1, 33: 1, 1: 12, 8: 10}","[1, 8, 12, 33, 55]",112810121331551,Cs1Mg1As1H12O10
MgTlAs(H6O5)2,mp-556009,4.3811,-0.46354088,0.0,icsd-419836,"{12: 1, 81: 1, 33: 1, 1: 12, 8: 10}","[1, 8, 12, 33, 81]",112810121331811,Mg1Tl1As1H12O10
MgH12(BrO6)2,mp-24006,4.9018,-1.65744368,0.0,icsd-79821,"{12: 1, 1: 12, 35: 2, 8: 12}","[1, 8, 12, 35]",112812121352,Mg1H12Br2O12
Rb2MgH12(SO7)2,mp-1203952,5.0565,4.04294627,0.0,icsd-409491,"{37: 2, 12: 1, 1: 12, 16: 2, 8: 14}","[1, 8, 12, 16, 37]",112814121162372,Rb2Mg1H12S2O14
Cs2MgH12(SO7)2,mp-542417,5.0352,-0.62302915,0.0,icsd-409737,"{55: 2, 12: 1, 1: 12, 16: 2, 8: 14}","[1, 8, 12, 16, 55]",112814121162552,Cs2Mg1H12S2O14
MgTl2H12(SO7)2,mp-1201988,4.6787,-0.23367978,0.0,icsd-710002,"{12: 1, 81: 2, 1: 12, 16: 2, 8: 14}","[1, 8, 12, 16, 81]",112814121162812,Mg1Tl2H12S2O14
K2MgH12(SeO7)2,mp-1198329,3.9456999999999995,2.41094584,0.0,icsd-409998,"{19: 2, 12: 1, 1: 12, 34: 2, 8: 14}","[1, 8, 12, 19, 34]",112814121192342,K2Mg1H12Se2O14
Rb2MgH12(SeO7)2,mp-780006,3.9236,-1.59538399,0.0,icsd-409719,"{37: 2, 12: 1, 1: 12, 34: 2, 8: 14}","[1, 8, 12, 34, 37]",112814121342372,Rb2Mg1H12Se2O14
Cs2MgH12(SeO7)2,mp-779875,3.8819999999999997,-1.35593512,0.0,icsd-409746,"{55: 2, 12: 1, 1: 12, 34: 2, 8: 14}","[1, 8, 12, 34, 55]",112814121342552,Cs2Mg1H12Se2O14
MgTl2H12(SeO7)2,mp-1197665,3.9844,-0.80106457,0.0,icsd-710008,"{12: 1, 81: 2, 1: 12, 34: 2, 8: 14}","[1, 8, 12, 34, 81]",112814121342812,Mg1Tl2H12Se2O14
CsMgH12(ClO2)3,mp-721171,4.9182,-2.00985591,0.0,icsd-66462,"{55: 1, 12: 1, 1: 12, 17: 3, 8: 6}","[1, 8, 12, 17, 55]",11286121173551,Cs1Mg1H12Cl3O6
MgZn2H12(BrO)6,mp-697121,3.6444,-1.82234188,0.0,icsd-49914,"{12: 1, 30: 2, 1: 12, 35: 6, 8: 6}","[1, 8, 12, 30, 35]",11286121302356,Mg1Zn2H12Br6O6
MgH12(I4O3)2,mp-707735,1.3114,0.70306349,0.0,icsd-32507,"{12: 1, 1: 12, 53: 8, 8: 6}","[1, 8, 12, 53]",11286121538,Mg1H12I8O6
MgH12SeO9,mp-504894,5.0692,-1.09481072,0.0,icsd-48115,"{12: 1, 1: 12, 34: 1, 8: 9}","[1, 8, 12, 34]",11289121341,Mg1H12Se1O9
Mg2Be3P3H13O19,mp-1198243,5.3108,0.08197143,0.0,icsd-78422,"{12: 2, 4: 3, 15: 3, 1: 13, 8: 19}","[1, 4, 8, 12, 15]",11343819122153,Mg2Be3P3H13O19
Na4Mg(SiSe3)2,mp-1103351,2.7632000000000003,1.79424014,0.0,icsd-239113,"{11: 4, 12: 1, 14: 2, 34: 6}","[11, 12, 14, 34]",114121142346,Na4Mg1Si2Se6
Na4Mg(GeSe3)2,mp-1103730,1.8220999999999998,1.37602157,0.0,icsd-239112,"{11: 4, 12: 1, 32: 2, 34: 6}","[11, 12, 32, 34]",114121322346,Na4Mg1Ge2Se6
MgBHO3,mp-23748,5.4376999999999995,1.43306323,0.0,icsd-161275,"{12: 1, 5: 1, 1: 1, 8: 3}","[1, 5, 8, 12]",115183121,Mg1B1H1O3
Na6MgCl8,mp-1210184,5.244,-0.98684329,0.0,pf-5138,"{11: 6, 12: 1, 17: 8}","[11, 12, 17]",116121178,Na6Mg1Cl8
MgH16(IO4)2,mp-1203034,3.7464,2.36107154,0.0,icsd-189843,"{12: 1, 1: 16, 53: 2, 8: 8}","[1, 8, 12, 53]",11688121532,Mg1H16I2O8
MgHN,mp-1185888,2.2586999999999997,0.98054197,0.0,icsd-261304,"{12: 1, 1: 1, 7: 1}","[1, 7, 12]",1171121,Mg1H1N1
MgHOF,mp-1189172,4.7269000000000005,0.66314172,0.0,icsd-186501,"{12: 1, 1: 1, 8: 1, 9: 1}","[1, 8, 9, 12]",118191121,Mg1H1O1F1
Mg2PHO5,mp-23740,4.9826999999999995,1.61200475,0.0,icsd-159331,"{12: 2, 15: 1, 1: 1, 8: 5}","[1, 8, 12, 15]",1185122151,Mg2P1H1O5
NaMg2HSe2O7,mp-1195419,4.567,0.79783967,0.0,icsd-429556,"{11: 1, 12: 2, 1: 1, 34: 2, 8: 7}","[1, 8, 11, 12, 34]",1187111122342,Na1Mg2H1Se2O7
Na3MgP2HO8,mp-643658,4.572,1.6731567,0.0,icsd-81226,"{11: 3, 12: 1, 15: 2, 1: 1, 8: 8}","[1, 8, 11, 12, 15]",1188113121152,Na3Mg1P2H1O8
MgH18Br2O9,mp-1199138,4.4417,2.46777386,0.0,icsd-189840,"{12: 1, 1: 18, 35: 2, 8: 9}","[1, 8, 12, 35]",11889121352,Mg1H18Br2O9
MgH18I2O9,mp-1200673,3.8473,-1.02747353,0.0,icsd-189841,"{12: 1, 1: 18, 53: 2, 8: 9}","[1, 8, 12, 53]",11889121532,Mg1H18I2O9
MgHAu2F11,mp-1202806,1.6864,-3.19276263,0.0,icsd-415872,"{12: 1, 1: 1, 79: 2, 9: 11}","[1, 9, 12, 79]",11911121792,Mg1H1Au2F11
MgU2P2(H10O11)2,mp-1211200,2.4364,1.68039693,0.0,pf-21452,"{12: 1, 92: 2, 15: 2, 1: 20, 8: 22}","[1, 8, 12, 15, 92]",120822121152922,Mg1U2P2H20O22
Mg,mp-153,0.0,2.03846677,0.0,icsd-77908,{12: 1},[12],121,Mg1
La3MgAlS7,mp-1190945,2.2951999999999995,5.21468258,0.0,icsd-608298,"{57: 3, 12: 1, 13: 1, 16: 7}","[12, 13, 16, 57]",121131167573,La3Mg1Al1S7
YMgAl,mp-13090,0.0,4.17909682,0.0,icsd-160908,"{39: 1, 12: 1, 13: 1}","[12, 13, 39]",121131391,Y1Mg1Al1
Mg(AlS2)2,mp-3872,3.0678,3.80833953,0.0,icsd-38344,"{12: 1, 13: 2, 16: 4}","[12, 13, 16]",121132164,Mg1Al2S4
Mg(AlCl4)2,mp-542463,5.5324,-1.4579026,0.0,icsd-62046,"{12: 1, 13: 2, 17: 8}","[12, 13, 17]",121132178,Mg1Al2Cl8
MgAl2Cu,mp-3034,0.0,6.70274094,0.0,icsd-186681,"{12: 1, 13: 2, 29: 1}","[12, 13, 29]",121132291,Mg1Al2Cu1
Ca4MgAl3,mp-640340,0.0,3.44459218,0.0,icsd-152756,"{20: 4, 12: 1, 13: 3}","[12, 13, 20]",121133204,Ca4Mg1Al3
MgSiP2,mp-2961,1.3728000000000007,4.14841178,0.0,icsd-44108,"{12: 1, 14: 1, 15: 2}","[12, 14, 15]",121141152,Mg1Si1P2
MgCu2SiS4,mp-1205334,1.6730999999999998,6.39492819,0.0,icsd-425554,"{12: 1, 29: 2, 14: 1, 16: 4}","[12, 14, 16, 29]",121141164292,Mg1Cu2Si1S4
CaMgSi,mp-5473,0.0,4.41301058,0.0,icsd-239188,"{20: 1, 12: 1, 14: 1}","[12, 14, 20]",121141201,Ca1Mg1Si1
MgCu2SiSe4,mp-1188827,0.8180000000000001,3.62271708,0.0,icsd-425556,"{12: 1, 29: 2, 14: 1, 34: 4}","[12, 14, 29, 34]",121141292344,Mg1Cu2Si1Se4
MgSiAs2,mp-1016197,1.3031999999999995,3.34683907,0.0,icsd-237070,"{12: 1, 14: 1, 33: 2}","[12, 14, 33]",121141332,Mg1Si1As2
SrMgSi,mp-15642,0.03299999999999992,3.96555844,0.0,icsd-191038,"{38: 1, 12: 1, 14: 1}","[12, 14, 38]",121141381,Sr1Mg1Si1
BaMgSi,mp-9934,0.0,3.82786434,0.0,icsd-191039,"{56: 1, 12: 1, 14: 1}","[12, 14, 56]",121141561,Ba1Mg1Si1
EuMgSi,mp-1102652,0.0,4.12343029,0.0,icsd-602719,"{63: 1, 12: 1, 14: 1}","[12, 14, 63]",121141631,Eu1Mg1Si1
SrMgSi2,mp-29002,0.0,5.07039545,0.0,icsd-78999,"{38: 1, 12: 1, 14: 2}","[12, 14, 38]",121142381,Sr1Mg1Si2
Y2MgSi2,mp-1205496,0.0,5.03783768,0.0,pf-38002,"{39: 2, 12: 1, 14: 2}","[12, 14, 39]",121142392,Y2Mg1Si2
LaMgSi2,mp-568173,0.0,7.40357793,0.0,icsd-246386,"{57: 1, 12: 1, 14: 2}","[12, 14, 57]",121142571,La1Mg1Si2
La2MgSi2,mp-1205762,0.0,6.97733786,0.0,pf-6616,"{57: 2, 12: 1, 14: 2}","[12, 14, 57]",121142572,La2Mg1Si2
CeMgSi2,mp-3545,0.0,7.37839927,0.0,icsd-246387,"{58: 1, 12: 1, 14: 2}","[12, 14, 58]",121142581,Ce1Mg1Si2
Ce2MgSi2,mp-505296,0.0,7.10789609,0.0,icsd-83915,"{58: 2, 12: 1, 14: 2}","[12, 14, 58]",121142582,Ce2Mg1Si2
PrMgSi2,mp-569384,0.0,5.81753863,0.0,icsd-246388,"{59: 1, 12: 1, 14: 2}","[12, 14, 59]",121142591,Pr1Mg1Si2
Pr2MgSi2,mp-1205589,0.0,4.67727157,0.0,pf-27638,"{59: 2, 12: 1, 14: 2}","[12, 14, 59]",121142592,Pr2Mg1Si2
NdMgSi2,mp-568049,0.0,5.82711109,0.0,icsd-246389,"{60: 1, 12: 1, 14: 2}","[12, 14, 60]",121142601,Nd1Mg1Si2
Nd2MgSi2,mp-1205494,0.0,4.6637032,0.0,pf-38093,"{60: 2, 12: 1, 14: 2}","[12, 14, 60]",121142602,Nd2Mg1Si2
Sm2MgSi2,mp-1208848,0.0,4.65763606,0.0,pf-17003,"{62: 2, 12: 1, 14: 2}","[12, 14, 62]",121142622,Sm2Mg1Si2
Gd2MgSi2,mp-1205813,0.0,4.73513532,0.0,pf-6708,"{64: 2, 12: 1, 14: 2}","[12, 14, 64]",121142642,Gd2Mg1Si2
Tb2MgSi2,mp-1205816,0.0,4.94184728,0.0,pf-17163,"{65: 2, 12: 1, 14: 2}","[12, 14, 65]",121142652,Tb2Mg1Si2
Dy2MgSi2,mp-570561,0.0,4.8030281,0.0,icsd-415117,"{66: 2, 12: 1, 14: 2}","[12, 14, 66]",121142662,Dy2Mg1Si2
Ho2MgSi2,mp-1205678,0.0,4.94803956,0.0,pf-36798,"{67: 2, 12: 1, 14: 2}","[12, 14, 67]",121142672,Ho2Mg1Si2
Er2MgSi2,mp-1206813,0.0,4.97391059,0.0,pf-5335,"{68: 2, 12: 1, 14: 2}","[12, 14, 68]",121142682,Er2Mg1Si2
Tm2MgSi2,mp-1206569,0.0,4.9624329,0.0,pf-15797,"{69: 2, 12: 1, 14: 2}","[12, 14, 69]",121142692,Tm2Mg1Si2
MgSi7Ir3,mp-13241,0.0,8.82817808,0.0,icsd-249150,"{12: 1, 14: 7, 77: 3}","[12, 14, 77]",121147773,Mg1Si7Ir3
MgPS3,mp-675651,2.7986,2.57191553,0.0,icsd-642729,"{12: 1, 15: 1, 16: 3}","[12, 15, 16]",121151163,Mg1P1S3
KMgP,mp-1018737,1.6589,2.24438962,0.0,icsd-641231,"{19: 1, 12: 1, 15: 1}","[12, 15, 19]",121151191,K1Mg1P1
MgCuP,mp-7352,0.018499999999999517,7.30101959,0.0,icsd-8221,"{12: 1, 29: 1, 15: 1}","[12, 15, 29]",121151291,Mg1Cu1P1
MgPSe3,mp-30943,2.0382,1.85054648,0.0,icsd-413165,"{12: 1, 15: 1, 34: 3}","[12, 15, 34]",121151343,Mg1P1Se3
MgPPd5,mp-1025261,0.0,5.1417392,0.0,icsd-642727,"{12: 1, 15: 1, 46: 5}","[12, 15, 46]",121151465,Mg1P1Pd5
MgPPt5,mp-15780,0.0,7.35175343,0.0,icsd-44928,"{12: 1, 15: 1, 78: 5}","[12, 15, 78]",121151785,Mg1P1Pt5
K2Mg(PSe3)2,mp-11643,1.6572,1.17843532,0.0,icsd-413168,"{19: 2, 12: 1, 15: 2, 34: 6}","[12, 15, 19, 34]",121152192346,K2Mg1P2Se6
MgP4,mp-384,0.7289000000000003,5.21312334,0.0,icsd-23555,"{12: 1, 15: 4}","[12, 15]",121154,Mg1P4
Mg(Co3P2)2,mp-10924,0.0,8.30555351,0.0,icsd-94412,"{12: 1, 27: 6, 15: 4}","[12, 15, 27]",121154276,Mg1Co6P4
MgS,mp-1315,2.7574,3.48975604,0.0,icsd-603166,"{12: 1, 16: 1}","[12, 16]",121161,Mg1S1
Mg(ScS2)2,mp-14307,1.5651000000000002,2.98419924,0.0,icsd-37423,"{12: 1, 21: 2, 16: 4}","[12, 16, 21]",121164212,Mg1Sc2S4
Mg(GaS2)2,mp-667323,2.1288,2.50869121,0.0,icsd-15350,"{12: 1, 31: 2, 16: 4}","[12, 16, 31]",121164312,Mg1Ga2S4
Mg(InS2)2,mp-20493,1.7643999999999997,3.7635593,0.0,icsd-53096,"{12: 1, 49: 2, 16: 4}","[12, 16, 49]",121164492,Mg1In2S4
Lu2MgS4,mp-14304,1.9819,2.14184867,0.0,icsd-37420,"{71: 2, 12: 1, 16: 4}","[12, 16, 71]",121164712,Lu2Mg1S4
MgCl2,mp-23210,5.6168,-0.68736794,0.0,icsd-86439,"{12: 1, 17: 2}","[12, 17]",121172,Mg1Cl2
RbMgCl3,mp-27208,4.7503,-0.16227722,0.0,icsd-4036,"{37: 1, 12: 1, 17: 3}","[12, 17, 37]",121173371,Rb1Mg1Cl3
CsMgCl3,mp-23004,5.126099999999999,-0.30266804,0.0,icsd-22086,"{55: 1, 12: 1, 17: 3}","[12, 17, 55]",121173551,Cs1Mg1Cl3
K2MgCl4,mp-27207,4.7652,-0.70477651,0.0,icsd-4035,"{19: 2, 12: 1, 17: 4}","[12, 17, 19]",121174192,K2Mg1Cl4
Rb2MgCl4,mp-1025227,4.8386,3.9617024,0.0,pf-14576,"{37: 2, 12: 1, 17: 4}","[12, 17, 37]",121174372,Rb2Mg1Cl4
KMgAs,mp-1019089,1.1621,1.92206742,0.0,icsd-610753,"{19: 1, 12: 1, 33: 1}","[12, 19, 33]",121191331,K1Mg1As1
KMgSb,mp-7089,1.2671999999999999,2.64009536,0.0,icsd-41709,"{19: 1, 12: 1, 51: 1}","[12, 19, 51]",121191511,K1Mg1Sb1
KMgBi,mp-1019105,0.38549999999999995,2.38715292,0.0,icsd-616748,"{19: 1, 12: 1, 83: 1}","[12, 19, 83]",121191831,K1Mg1Bi1
CaMgGe,mp-15641,0.0,3.59213344,0.0,icsd-239193,"{20: 1, 12: 1, 32: 1}","[12, 20, 32]",121201321,Ca1Mg1Ge1
CaMgPd,mp-1102662,0.0,3.56930354,0.0,icsd-426616,"{20: 1, 12: 1, 46: 1}","[12, 20, 46]",121201461,Ca1Mg1Pd1
CaMgSn,mp-4864,0.0,4.77509409,0.0,icsd-42757,"{20: 1, 12: 1, 50: 1}","[12, 20, 50]",121201501,Ca1Mg1Sn1
CaMgPb,mp-861738,0.0,4.71116759,0.0,icsd-619403,"{20: 1, 12: 1, 82: 1}","[12, 20, 82]",121201821,Ca1Mg1Pb1
Ca2MgPd2,mp-1068035,0.0,3.58950493,0.0,icsd-429174,"{20: 2, 12: 1, 46: 2}","[12, 20, 46]",121202462,Ca2Mg1Pd2
Ca2MgPt2,mp-1068002,0.0,4.30514242,0.0,icsd-429175,"{20: 2, 12: 1, 78: 2}","[12, 20, 78]",121202782,Ca2Mg1Pt2
MgH2,mp-23710,3.7097,0.10549708,0.0,icsd-155807,"{12: 1, 1: 2}","[1, 12]",12121,Mg1H2
MgSc,mp-1174,0.0,3.42404925,0.0,icsd-108583,"{12: 1, 21: 1}","[12, 21]",121211,Mg1Sc1
Mg(ScGa)2,mp-13570,0.0,3.83797855,0.0,icsd-260213,"{12: 1, 21: 2, 31: 2}","[12, 21, 31]",121212312,Mg1Sc2Ga2
MgSc2Ru,mp-1063566,0.0,4.31169131,0.0,icsd-428960,"{12: 1, 21: 2, 44: 1}","[12, 21, 44]",121212441,Mg1Sc2Ru1
MgSc3Ru2,mp-1018799,0.0,5.03363535,0.0,icsd-427124,"{12: 1, 21: 3, 44: 2}","[12, 21, 44]",121213442,Mg1Sc3Ru2
MgMnGe,mp-20354,0.0,4.9323639,0.0,icsd-66948,"{12: 1, 25: 1, 32: 1}","[12, 25, 32]",121251321,Mg1Mn1Ge1
Mg(MnGe)6,mp-1211250,0.0,5.48700052,0.0,pf-22806,"{12: 1, 25: 6, 32: 6}","[12, 25, 32]",121256326,Mg1Mn6Ge6
CeMg12,mp-1103919,0.0,3.67550347,0.0,icsd-621486,"{58: 1, 12: 12}","[12, 58]",1212581,Ce1Mg12
Mg(FeGe)6,mp-20673,0.0,5.44965131,0.0,icsd-188717,"{12: 1, 26: 6, 32: 6}","[12, 26, 32]",121266326,Mg1Fe6Ge6
MgCoGe,mp-1018808,0.0,4.69141964,0.0,icsd-418853,"{12: 1, 27: 1, 32: 1}","[12, 27, 32]",121271321,Mg1Co1Ge1
Y4MgCo,mp-1207998,0.0,3.42639202,0.0,pf-26400,"{39: 4, 12: 1, 27: 1}","[12, 27, 39]",121271394,Y4Mg1Co1
La4MgCo,mp-569582,0.0,7.23326909,0.0,icsd-416990,"{57: 4, 12: 1, 27: 1}","[12, 27, 57]",121271574,La4Mg1Co1
Pr4MgCo,mp-645130,0.0,3.5101629,0.0,icsd-416986,"{59: 4, 12: 1, 27: 1}","[12, 27, 59]",121271594,Pr4Mg1Co1
Nd4MgCo,mp-1210019,0.0,3.60962265,0.0,pf-15901,"{60: 4, 12: 1, 27: 1}","[12, 27, 60]",121271604,Nd4Mg1Co1
Tb4MgCo,mp-1208464,0.0,3.52919762,0.0,pf-14562,"{65: 4, 12: 1, 27: 1}","[12, 27, 65]",121271654,Tb4Mg1Co1
Dy4MgCo,mp-1212913,0.0,3.47797478,0.0,pf-25079,"{66: 4, 12: 1, 27: 1}","[12, 27, 66]",121271664,Dy4Mg1Co1
Ho4MgCo,mp-1212342,0.0,3.31896063,0.0,pf-4122,"{67: 4, 12: 1, 27: 1}","[12, 27, 67]",121271674,Ho4Mg1Co1
Er4MgCo,mp-1212959,0.0,3.40111364,0.0,pf-35567,"{68: 4, 12: 1, 27: 1}","[12, 27, 68]",121271684,Er4Mg1Co1
Tm4MgCo,mp-1208060,0.0,3.29517149,0.0,pf-14635,"{69: 4, 12: 1, 27: 1}","[12, 27, 69]",121271694,Tm4Mg1Co1
Mg(Co2Ge3)2,mp-1206386,0.0,5.09188562,0.0,pf-25433,"{12: 1, 27: 4, 32: 6}","[12, 27, 32]",121274326,Mg1Co4Ge6
TbMgCo4,mp-1070837,0.0,4.45344107,0.0,icsd-195972,"{65: 1, 12: 1, 27: 4}","[12, 27, 65]",121274651,Tb1Mg1Co4
YMgCu,mp-13171,0.0,4.1234066,0.0,icsd-163695,"{39: 1, 12: 1, 29: 1}","[12, 29, 39]",121291391,Y1Mg1Cu1
MgCuSn,mp-11361,0.0,6.24679532,0.0,icsd-628345,"{12: 1, 29: 1, 50: 1}","[12, 29, 50]",121291501,Mg1Cu1Sn1
MgCuSb,mp-3522,0.0,6.52196048,0.0,icsd-412294,"{12: 1, 29: 1, 51: 1}","[12, 29, 51]",121291511,Mg1Cu1Sb1
LaMgCu,mp-1206944,0.0,6.28016208,0.0,pf-35911,"{57: 1, 12: 1, 29: 1}","[12, 29, 57]",121291571,La1Mg1Cu1
MgCu2,mp-1038,0.0,5.6643077,0.0,icsd-108142,"{12: 1, 29: 2}","[12, 29]",121292,Mg1Cu2
Y2MgCu2,mp-4901,0.0,4.05838775,0.0,icsd-411711,"{39: 2, 12: 1, 29: 2}","[12, 29, 39]",121292392,Y2Mg1Cu2
LaMgCu2,mp-12947,0.0,6.44551541,0.0,icsd-155984,"{57: 1, 12: 1, 29: 2}","[12, 29, 57]",121292571,La1Mg1Cu2
La2MgCu2,mp-11086,0.0,6.67189763,0.0,icsd-411709,"{57: 2, 12: 1, 29: 2}","[12, 29, 57]",121292572,La2Mg1Cu2
Pr2MgCu2,mp-1205577,0.0,4.1552683,0.0,pf-18953,"{59: 2, 12: 1, 29: 2}","[12, 29, 59]",121292592,Pr2Mg1Cu2
Nd2MgCu2,mp-16638,0.0,4.10446067,0.0,icsd-411710,"{60: 2, 12: 1, 29: 2}","[12, 29, 60]",121292602,Nd2Mg1Cu2
Sm2MgCu2,mp-1206905,0.0,4.00667912,0.0,pf-29492,"{62: 2, 12: 1, 29: 2}","[12, 29, 62]",121292622,Sm2Mg1Cu2
Tb2MgCu2,mp-1205707,0.0,4.03549403,0.0,pf-8490,"{65: 2, 12: 1, 29: 2}","[12, 29, 65]",121292652,Tb2Mg1Cu2
Dy2MgCu2,mp-1205987,0.0,4.05222989,0.0,pf-19028,"{66: 2, 12: 1, 29: 2}","[12, 29, 66]",121292662,Dy2Mg1Cu2
Ho2MgCu2,mp-1205563,0.0,4.00913107,0.0,pf-29558,"{67: 2, 12: 1, 29: 2}","[12, 29, 67]",121292672,Ho2Mg1Cu2
Er2MgCu2,mp-1205745,0.0,4.09057717,0.0,pf-7176,"{68: 2, 12: 1, 29: 2}","[12, 29, 68]",121292682,Er2Mg1Cu2
Tm2MgCu2,mp-1205970,0.0,4.125277,0.0,pf-17625,"{69: 2, 12: 1, 29: 2}","[12, 29, 69]",121292692,Tm2Mg1Cu2
YMgCu4,mp-13172,0.0,5.3485692,0.0,icsd-191559,"{39: 1, 12: 1, 29: 4}","[12, 29, 39]",121294391,Y1Mg1Cu4
MgInCu4,mp-30587,0.0,6.78319793,0.0,icsd-628018,"{12: 1, 49: 1, 29: 4}","[12, 29, 49]",121294491,Mg1In1Cu4
MgCu4Sn,mp-3676,0.0,6.91174387,0.0,icsd-108141,"{12: 1, 29: 4, 50: 1}","[12, 29, 50]",121294501,Mg1Cu4Sn1
NdMgCu4,mp-1071051,0.0,5.15512745,0.0,icsd-194977,"{60: 1, 12: 1, 29: 4}","[12, 29, 60]",121294601,Nd1Mg1Cu4
YMgZn,mp-6908,0.0,3.2819915,0.0,icsd-160907,"{39: 1, 12: 1, 30: 1}","[12, 30, 39]",121301391,Y1Mg1Zn1
MgZnAg2,mp-11236,0.0,4.40522056,0.0,icsd-58333,"{12: 1, 30: 1, 47: 2}","[12, 30, 47]",121301472,Mg1Zn1Ag2
MgZn2,mp-1124,0.0,3.49752987,0.0,icsd-642928,"{12: 1, 30: 2}","[12, 30]",121302,Mg1Zn2
CeMgZn2,mp-13254,0.0,4.44753228,0.0,icsd-249342,"{58: 1, 12: 1, 30: 2}","[12, 30, 58]",121302581,Ce1Mg1Zn2
MgGa,mp-574266,0.0,3.79327927,0.0,icsd-103789,"{12: 1, 31: 1}","[12, 31]",121311,Mg1Ga1
YMgGa,mp-5590,0.0,3.76071612,0.0,icsd-160909,"{39: 1, 12: 1, 31: 1}","[12, 31, 39]",121311391,Y1Mg1Ga1
LaMgGa,mp-21509,0.0,5.57253472,0.0,icsd-413276,"{57: 1, 12: 1, 31: 1}","[12, 31, 57]",121311571,La1Mg1Ga1
CeMgGa,mp-21375,0.0,5.28708063,0.0,icsd-413062,"{58: 1, 12: 1, 31: 1}","[12, 31, 58]",121311581,Ce1Mg1Ga1
PrMgGa,mp-7239,0.0,3.64375606,0.0,icsd-413285,"{59: 1, 12: 1, 31: 1}","[12, 31, 59]",121311591,Pr1Mg1Ga1
NdMgGa,mp-11155,0.0,3.60132594,0.0,icsd-413277,"{60: 1, 12: 1, 31: 1}","[12, 31, 60]",121311601,Nd1Mg1Ga1
SmMgGa,mp-11157,0.0,3.57960777,0.0,icsd-413286,"{62: 1, 12: 1, 31: 1}","[12, 31, 62]",121311621,Sm1Mg1Ga1
GdMgGa,mp-574004,0.0,3.39946744,0.0,icsd-54616,"{64: 1, 12: 1, 31: 1}","[12, 31, 64]",121311641,Gd1Mg1Ga1
TbMgGa,mp-1205835,0.0,3.62151063,0.0,pf-21668,"{65: 1, 12: 1, 31: 1}","[12, 31, 65]",121311651,Tb1Mg1Ga1
DyMgGa,mp-1205763,0.0,3.64122792,0.0,pf-32110,"{66: 1, 12: 1, 31: 1}","[12, 31, 66]",121311661,Dy1Mg1Ga1
HoMgGa,mp-1205995,0.0,3.61525041,0.0,pf-690,"{67: 1, 12: 1, 31: 1}","[12, 31, 67]",121311671,Ho1Mg1Ga1
ErMgGa,mp-1207050,0.0,3.6327505,0.0,pf-11172,"{68: 1, 12: 1, 31: 1}","[12, 31, 68]",121311681,Er1Mg1Ga1
TmMgGa,mp-11156,0.0,3.62297544,0.0,icsd-413278,"{69: 1, 12: 1, 31: 1}","[12, 31, 69]",121311691,Tm1Mg1Ga1
MgGaAu,mp-1080605,0.0,4.66289058,0.0,icsd-192086,"{12: 1, 31: 1, 79: 1}","[12, 31, 79]",121311791,Mg1Ga1Au1
MgGaAu2,mp-1079175,0.0,4.65485293,0.0,icsd-192087,"{12: 1, 31: 1, 79: 2}","[12, 31, 79]",121311792,Mg1Ga1Au2
SrMgGe,mp-15643,0.026900000000000368,3.22584409,0.0,icsd-42458,"{38: 1, 12: 1, 32: 1}","[12, 32, 38]",121321381,Sr1Mg1Ge1
BaMgGe,mp-754515,0.0,3.20502897,0.0,icsd-42460,"{56: 1, 12: 1, 32: 1}","[12, 32, 56]",121321561,Ba1Mg1Ge1
EuMgGe,mp-867152,0.0,3.33602529,0.0,icsd-427571,"{63: 1, 12: 1, 32: 1}","[12, 32, 63]",121321631,Eu1Mg1Ge1
Y2MgGe2,mp-865747,0.0,3.98167115,0.0,icsd-423457,"{39: 2, 12: 1, 32: 2}","[12, 32, 39]",121322392,Y2Mg1Ge2
Ce2MgGe2,mp-22511,0.0,5.91693335,0.0,icsd-413849,"{58: 2, 12: 1, 32: 2}","[12, 32, 58]",121322582,Ce2Mg1Ge2
Pr2MgGe2,mp-21350,0.0,3.6920841,0.0,icsd-413850,"{59: 2, 12: 1, 32: 2}","[12, 32, 59]",121322592,Pr2Mg1Ge2
Nd2MgGe2,mp-977548,0.0,3.66618655,0.0,icsd-423449,"{60: 2, 12: 1, 32: 2}","[12, 32, 60]",121322602,Nd2Mg1Ge2
Sm2MgGe2,mp-867932,0.0,3.66297309,0.0,icsd-423451,"{62: 2, 12: 1, 32: 2}","[12, 32, 62]",121322622,Sm2Mg1Ge2
Gd2MgGe2,mp-19945,0.0,3.71490524,0.0,icsd-93403,"{64: 2, 12: 1, 32: 2}","[12, 32, 64]",121322642,Gd2Mg1Ge2
Tb2MgGe2,mp-867301,0.0,3.90217848,0.0,icsd-423450,"{65: 2, 12: 1, 32: 2}","[12, 32, 65]",121322652,Tb2Mg1Ge2