formula,material_id,band_gap,efermi,energy_above_hull,database_IDs,comp_atoms,sorted_keys_comp_atoms,comp_number,new_formula
SrMg2FeH8,mp-643004,1.7242999999999997,1.85641052,0.0,icsd-657712,"{38: 1, 12: 2, 26: 1, 1: 8}","[1, 12, 26, 38]",18122261381,Sr1Mg2Fe1H8
BaMg2FeH8,mp-643264,1.4470999999999998,1.85383462,0.0,icsd-79991,"{56: 1, 12: 2, 26: 1, 1: 8}","[1, 12, 26, 56]",18122261561,Ba1Mg2Fe1H8
BaMg2H8Ru,mp-643451,1.9106999999999998,1.38522096,0.0,icsd-83891,"{56: 1, 12: 2, 1: 8, 44: 1}","[1, 12, 44, 56]",18122441561,Ba1Mg2H8Ru1
BaMg2H8Os,mp-643439,2.1357,1.37161115,0.0,icsd-83892,"{56: 1, 12: 2, 1: 8, 76: 1}","[1, 12, 56, 76]",18122561761,Ba1Mg2H8Os1
Mg(BH4)2,mp-1200811,6.7129,-5.35533472,0.0,icsd-262080,"{12: 1, 5: 2, 1: 8}","[1, 5, 12]",1852121,Mg1B2H8
K2MgH8(CO5)2,mp-757963,4.5358,-0.39302479,0.0,icsd-200006,"{19: 2, 12: 1, 1: 8, 6: 2, 8: 10}","[1, 6, 8, 12, 19]",1862810121192,K2Mg1H8C2O10
Rb2MgH8(CO5)2,mp-24606,4.3182,-0.50042627,0.0,icsd-81343,"{37: 2, 12: 1, 1: 8, 6: 2, 8: 10}","[1, 6, 8, 12, 37]",1862810121372,Rb2Mg1H8C2O10
Cs2MgH8(CO5)2,mp-733936,4.4403999999999995,-0.09300056,0.0,icsd-87949,"{55: 2, 12: 1, 1: 8, 6: 2, 8: 10}","[1, 6, 8, 12, 55]",1862810121552,Cs2Mg1H8C2O10
K2Mg(H2N)4,mp-759183,2.0665999999999998,-0.11962002,0.0,icsd-201438,"{19: 2, 12: 1, 1: 8, 7: 4}","[1, 7, 12, 19]",1874121192,K2Mg1H8N4
MgP2(H4O5)2,mp-1200442,5.4596,-0.26735974,0.0,icsd-30955,"{12: 1, 15: 2, 1: 8, 8: 10}","[1, 8, 12, 15]",18810121152,Mg1P2H8O10
K2MgH8(SO6)2,mp-24742,5.18,-0.52266124,0.0,icsd-92699,"{19: 2, 12: 1, 1: 8, 16: 2, 8: 12}","[1, 8, 12, 16, 19]",18812121162192,K2Mg1H8S2O12
MgH8(ClO6)2,mp-865188,5.3273,-1.25724011,0.0,icsd-262271,"{12: 1, 1: 8, 17: 2, 8: 12}","[1, 8, 12, 17]",18812121172,Mg1H8Cl2O12
K2MgP4(HO2)8,mp-1204159,5.368099999999999,4.68781126,0.0,icsd-412869,"{19: 2, 12: 1, 15: 4, 1: 8, 8: 16}","[1, 8, 12, 15, 19]",18816121154192,K2Mg1P4H8O16
Rb2MgP4(HO2)8,mp-863025,5.3654,-0.36710284,0.0,icsd-418085,"{37: 2, 12: 1, 15: 4, 1: 8, 8: 16}","[1, 8, 12, 15, 37]",18816121154372,Rb2Mg1P4H8O16
Cs2MgP4(HO2)8,mp-866620,5.3770999999999995,-0.23716909,0.0,icsd-260151,"{55: 2, 12: 1, 15: 4, 1: 8, 8: 16}","[1, 8, 12, 15, 55]",18816121154552,Cs2Mg1P4H8O16
Mg7P2(HO2)8,mp-699232,4.921099999999999,1.75073322,0.0,icsd-92918,"{12: 7, 15: 2, 1: 8, 8: 16}","[1, 8, 12, 15]",18816127152,Mg7P2H8O16
MgH8(ClO2)2,mp-1203165,5.2698,3.39404859,0.0,icsd-262265,"{12: 1, 1: 8, 17: 2, 8: 4}","[1, 8, 12, 17]",1884121172,Mg1H8Cl2O4
LiCa10MgSb9,mp-569282,0.9226000000000001,4.28053815,0.0,icsd-171161,"{3: 1, 20: 10, 12: 1, 51: 9}","[3, 12, 20, 51]",311212010519,Li1Ca10Mg1Sb9
LiMgAs,mp-12558,1.3722999999999996,2.37069355,0.0,icsd-107954,"{3: 1, 12: 1, 33: 1}","[3, 12, 33]",31121331,Li1Mg1As1
LiMgSnPd,mp-7555,0.0,6.48285224,0.0,icsd-16478,"{3: 1, 12: 1, 50: 1, 46: 1}","[3, 12, 46, 50]",31121461501,Li1Mg1Sn1Pd1
LiMgSnPt,mp-11806,0.0,7.23081837,0.0,icsd-104749,"{3: 1, 12: 1, 50: 1, 78: 1}","[3, 12, 50, 78]",31121501781,Li1Mg1Sn1Pt1
LiMgSb,mp-1207082,1.4438,3.11473034,0.0,pf-9659,"{3: 1, 12: 1, 51: 1}","[3, 12, 51]",31121511,Li1Mg1Sb1
LiMgBi,mp-570213,0.35870000000000024,3.01990139,0.0,icsd-108112,"{3: 1, 12: 1, 83: 1}","[3, 12, 83]",31121831,Li1Mg1Bi1
LiMg3P3O11,mp-1020109,5.3095,1.72293192,0.0,icsd-428811,"{3: 1, 12: 3, 15: 3, 8: 11}","[3, 8, 12, 15]",31811123153,Li1Mg3P3O11
LiMgIn(MoO4)3,mp-558897,3.1865,0.0944227,0.0,icsd-63519,"{3: 1, 12: 1, 49: 1, 42: 3, 8: 12}","[3, 8, 12, 42, 49]",31812121423491,Li1Mg1In1Mo3O12
LiMgPO4,mp-9625,5.4297,2.18282829,0.0,icsd-201138,"{3: 1, 12: 1, 15: 1, 8: 4}","[3, 8, 12, 15]",3184121151,Li1Mg1P1O4
LiMgVO4,mp-560157,3.4825999999999997,1.03475734,0.0,icsd-63477,"{3: 1, 12: 1, 23: 1, 8: 4}","[3, 8, 12, 23]",3184121231,Li1Mg1V1O4
NaLiMgPO4F,mp-1196828,5.1228,6.47592782,0.0,icsd-426199,"{11: 1, 3: 1, 12: 1, 15: 1, 8: 4, 9: 1}","[3, 8, 9, 11, 12, 15]",318491111121151,Na1Li1Mg1P1O4F1
LiMgAlF6,mp-1193222,7.5661000000000005,-1.08540062,0.0,icsd-5007,"{3: 1, 12: 1, 13: 1, 9: 6}","[3, 9, 12, 13]",3196121131,Li1Mg1Al1F6
Li2MgSi,mp-1105932,0.1983999999999999,3.66786798,0.0,icsd-181257,"{3: 2, 12: 1, 14: 1}","[3, 12, 14]",32121141,Li2Mg1Si1
Li2MgIn,mp-12128,0.0,4.45051052,0.0,icsd-51965,"{3: 2, 12: 1, 49: 1}","[3, 12, 49]",32121491,Li2Mg1In1
BaLi2(MgSi)2,mp-570771,0.0,3.28636659,0.0,icsd-409575,"{56: 1, 3: 2, 12: 2, 14: 2}","[3, 12, 14, 56]",32122142561,Ba1Li2Mg2Si2
BaLi2(MgGe)2,mp-569396,0.0,2.62065619,0.0,icsd-409576,"{56: 1, 3: 2, 12: 2, 32: 2}","[3, 12, 32, 56]",32122322561,Ba1Li2Mg2Ge2
Li2Mg10B12Rh19,mp-1211708,0.0,6.3880939,0.0,pf-7992,"{3: 2, 12: 10, 5: 12, 45: 19}","[3, 5, 12, 45]",3251212104519,Li2Mg10B12Rh19
Li2Mg2(SO4)3,mp-14646,5.6251999999999995,0.7735413,0.0,icsd-65025,"{3: 2, 12: 2, 16: 3, 8: 12}","[3, 8, 12, 16]",32812122163,Li2Mg2S3O12
Li2MgSiO4,mp-11189,4.9405,1.11954444,0.0,icsd-95972,"{3: 2, 12: 1, 14: 1, 8: 4}","[3, 8, 12, 14]",3284121141,Li2Mg1Si1O4
Li2MgGeO4,mp-1210797,3.7673,4.11127788,0.0,pf-14895,"{3: 2, 12: 1, 32: 1, 8: 4}","[3, 8, 12, 32]",3284121321,Li2Mg1Ge1O4
Li2MgMn3O8,mp-581301,1.8867,3.25422357,0.0,icsd-90648,"{3: 2, 12: 1, 25: 3, 8: 8}","[3, 8, 12, 25]",3288121253,Li2Mg1Mn3O8
Li4Ca2Mg(SiN3)2,mp-1020016,3.0547,3.93402871,0.0,icsd-427077,"{3: 4, 20: 2, 12: 1, 14: 2, 7: 6}","[3, 7, 12, 14, 20]",3476121142202,Li4Ca2Mg1Si2N6
Li7Mg8Zn9,mp-1211673,0.0,2.25112071,0.0,pf-31042,"{3: 7, 12: 8, 30: 9}","[3, 12, 30]",37128309,Li7Mg8Zn9
Mg2BeB2Ir5,mp-1105674,0.0,7.68906819,0.0,icsd-612551,"{12: 2, 4: 1, 5: 2, 77: 5}","[4, 5, 12, 77]",4152122775,Mg2Be1B2Ir5
Mg(BeP)2,mp-1017628,0.6341000000000001,5.67672745,0.0,icsd-616328,"{12: 1, 4: 2, 15: 2}","[4, 12, 15]",42121152,Mg1Be2P2
Mg(BeAs)2,mp-865185,0.40419999999999945,4.63641886,0.0,icsd-609872,"{12: 1, 4: 2, 33: 2}","[4, 12, 33]",42121332,Mg1Be2As2
Mg(BeN)2,mp-11917,4.0657000000000005,5.56064847,0.0,icsd-413358,"{12: 1, 4: 2, 7: 2}","[4, 7, 12]",4272121,Mg1Be2N2
K2Mg2Be3F12,mp-13613,7.1325,-2.26959987,0.0,icsd-15152,"{19: 2, 12: 2, 4: 3, 9: 12}","[4, 9, 12, 19]",43912122192,K2Mg2Be3F12
Rb2Mg2Be3F12,mp-1209662,7.1687,-2.60052225,0.0,pf-7070,"{37: 2, 12: 2, 4: 3, 9: 12}","[4, 9, 12, 37]",43912122372,Rb2Mg2Be3F12
Mg2Be3Tl2F12,mp-1210925,5.670800000000001,-0.98303671,0.0,pf-28100,"{12: 2, 4: 3, 81: 2, 9: 12}","[4, 9, 12, 81]",43912122812,Mg2Be3Tl2F12
Mg8BRh4,mp-568621,0.0,4.3919371,0.0,icsd-249110,"{12: 8, 5: 1, 45: 4}","[5, 12, 45]",51128454,Mg8B1Rh4
Mg8BPt4,mp-568681,0.0,4.69028516,0.0,icsd-245121,"{12: 8, 5: 1, 78: 4}","[5, 12, 78]",51128784,Mg8B1Pt4
Mg(SiB6)2,mp-567224,1.9315000000000007,5.35158233,0.0,icsd-416304,"{12: 1, 14: 2, 5: 12}","[5, 12, 14]",512121142,Mg1Si2B12
Mg(B6C)2,mp-568803,2.1397000000000004,6.12411503,0.0,icsd-416801,"{12: 1, 5: 12, 6: 2}","[5, 6, 12]",51262121,Mg1B12C2
Mg10B16Ir19,mp-568548,0.0,7.00916186,0.0,icsd-163909,"{12: 10, 5: 16, 77: 19}","[5, 12, 77]",51612107719,Mg10B16Ir19
KMgBO3,mp-1191101,4.6163,0.20745361,0.0,icsd-174336,"{19: 1, 12: 1, 5: 1, 8: 3}","[5, 8, 12, 19]",5183121191,K1Mg1B1O3
RbMgBO3,mp-1020633,4.3738,0.39942524,0.0,icsd-250600,"{37: 1, 12: 1, 5: 1, 8: 3}","[5, 8, 12, 37]",5183121371,Rb1Mg1B1O3
BaMgBO3F,mp-1198065,4.1903,1.59653098,0.0,icsd-248043,"{56: 1, 12: 1, 5: 1, 8: 3, 9: 1}","[5, 8, 9, 12, 56]",518391121561,Ba1Mg1B1O3F1
MgAlBO4,mp-8376,6.0077,3.82825938,0.0,icsd-34349,"{12: 1, 13: 1, 5: 1, 8: 4}","[5, 8, 12, 13]",5184121131,Mg1Al1B1O4
MgAl3SiBO9,mp-1210669,4.841799999999999,2.50178719,0.0,pf-30489,"{12: 1, 13: 3, 14: 1, 5: 1, 8: 9}","[5, 8, 12, 13, 14]",5189121133141,Mg1Al3Si1B1O9
MgB2,mp-763,0.0,5.68073004,0.0,icsd-150598,"{12: 1, 5: 2}","[5, 12]",52121,Mg1B2
Mg2AlB2Ir5,mp-865047,0.0,8.21240854,0.0,icsd-606101,"{12: 2, 13: 1, 5: 2, 77: 5}","[5, 12, 13, 77]",52122131775,Mg2Al1B2Ir5
Mg2SiB2Ir5,mp-22250,0.0,9.17919437,0.0,icsd-69487,"{12: 2, 14: 1, 5: 2, 77: 5}","[5, 12, 14, 77]",52122141775,Mg2Si1B2Ir5
Mg2TiB2Ir5,mp-1188988,0.0,7.7544503,0.0,icsd-614537,"{12: 2, 22: 1, 5: 2, 77: 5}","[5, 12, 22, 77]",52122221775,Mg2Ti1B2Ir5
Mg2VB2Ir5,mp-1105469,0.0,7.97450106,0.0,icsd-614538,"{12: 2, 23: 1, 5: 2, 77: 5}","[5, 12, 23, 77]",52122231775,Mg2V1B2Ir5
Mg2CrB2Ir5,mp-1189317,0.0,8.01883727,0.0,icsd-613516,"{12: 2, 24: 1, 5: 2, 77: 5}","[5, 12, 24, 77]",52122241775,Mg2Cr1B2Ir5
Mg2MnB2Ir5,mp-1189623,0.0,7.83924346,0.0,icsd-614533,"{12: 2, 25: 1, 5: 2, 77: 5}","[5, 12, 25, 77]",52122251775,Mg2Mn1B2Ir5
Mg2FeB2Ir5,mp-1188243,0.0,7.73208088,0.0,icsd-613990,"{12: 2, 26: 1, 5: 2, 77: 5}","[5, 12, 26, 77]",52122261775,Mg2Fe1B2Ir5
Mg2CoB2Ir5,mp-1106047,0.0,7.76030559,0.0,icsd-613129,"{12: 2, 27: 1, 5: 2, 77: 5}","[5, 12, 27, 77]",52122271775,Mg2Co1B2Ir5
Mg2ZnB2Ir5,mp-865031,0.0,7.42837095,0.0,icsd-614539,"{12: 2, 30: 1, 5: 2, 77: 5}","[5, 12, 30, 77]",52122301775,Mg2Zn1B2Ir5
Mg2GaB2Ir5,mp-1189749,0.0,7.61888086,0.0,icsd-614301,"{12: 2, 31: 1, 5: 2, 77: 5}","[5, 12, 31, 77]",52122311775,Mg2Ga1B2Ir5
Mg2GeB2Rh5,mp-505693,0.0,6.72813913,0.0,icsd-51432,"{12: 2, 32: 1, 5: 2, 45: 5}","[5, 12, 32, 45]",52122321455,Mg2Ge1B2Rh5
Mg2GeB2Ir5,mp-1106175,0.0,8.03454442,0.0,icsd-614395,"{12: 2, 32: 1, 5: 2, 77: 5}","[5, 12, 32, 77]",52122321775,Mg2Ge1B2Ir5
Mg2B2AsIr5,mp-1105793,0.0,8.40806441,0.0,icsd-609843,"{12: 2, 5: 2, 33: 1, 77: 5}","[5, 12, 33, 77]",52122331775,Mg2B2As1Ir5
Mg3B2Rh5,mp-1210641,0.0,5.82603033,0.0,pf-35583,"{12: 3, 5: 2, 45: 5}","[5, 12, 45]",52123455,Mg3B2Rh5
Mg2B24C,mp-568556,2.4909,5.67037444,0.0,icsd-416341,"{12: 2, 5: 24, 6: 1}","[5, 6, 12]",52461122,Mg2B24C1
Mg(BC)2,mp-3582,1.0168999999999997,4.83258861,0.0,icsd-155722,"{12: 1, 5: 2, 6: 2}","[5, 6, 12]",5262121,Mg1B2C2
Mg5Sn(BO5)2,mp-1198031,3.8299000000000003,7.00146312,0.0,icsd-169347,"{12: 5, 50: 1, 5: 2, 8: 10}","[5, 8, 12, 50]",52810125501,Mg5Sn1B2O10
SrMgB2O5,mp-1020634,4.6961,1.46463589,0.0,icsd-237060,"{38: 1, 12: 1, 5: 2, 8: 5}","[5, 8, 12, 38]",5285121381,Sr1Mg1B2O5
Mg2B2O5,mp-18256,5.1536,2.07333036,0.0,icsd-81229,"{12: 2, 5: 2, 8: 5}","[5, 8, 12]",5285122,Mg2B2O5
Sr2Mg(BO3)2,mp-13541,4.579700000000001,2.47785364,0.0,icsd-240897,"{38: 2, 12: 1, 5: 2, 8: 6}","[5, 8, 12, 38]",5286121382,Sr2Mg1B2O6
MgSn(BO3)2,mp-11715,3.6229999999999998,3.44967299,0.0,icsd-28266,"{12: 1, 50: 1, 5: 2, 8: 6}","[5, 8, 12, 50]",5286121501,Mg1Sn1B2O6
Ba2Mg(BO3)2,mp-9259,4.532399999999999,2.41456647,0.0,icsd-75986,"{56: 2, 12: 1, 5: 2, 8: 6}","[5, 8, 12, 56]",5286121562,Ba2Mg1B2O6
Mg3(BO3)2,mp-5005,5.143,2.68730421,0.0,icsd-38016,"{12: 3, 5: 2, 8: 6}","[5, 8, 12]",5286123,Mg3B2O6
MgUB2O7,mp-557384,2.2225,1.02767963,0.0,icsd-63085,"{12: 1, 92: 1, 5: 2, 8: 7}","[5, 8, 12, 92]",5287121921,Mg1U1B2O7
Rb18Mg6B29O58F,mp-1200013,3.8247,0.06367341,0.0,icsd-428171,"{37: 18, 12: 6, 5: 29, 8: 58, 9: 1}","[5, 8, 9, 12, 37]",529858911263718,Rb18Mg6B29O58F1
Mg5Nb(BO4)3,mp-1196847,3.0181999999999998,2.68701085,0.0,icsd-174627,"{12: 5, 41: 1, 5: 3, 8: 12}","[5, 8, 12, 41]",53812125411,Mg5Nb1B3O12
Mg5Ta(BO4)3,mp-1196921,3.8219000000000003,2.77406648,0.0,icsd-174643,"{12: 5, 73: 1, 5: 3, 8: 12}","[5, 8, 12, 73]",53812125731,Mg5Ta1B3O12
Mg5B3O9F,mp-560026,5.118399999999999,2.60851971,0.0,icsd-237057,"{12: 5, 5: 3, 8: 9, 9: 1}","[5, 8, 9, 12]",538991125,Mg5B3O9F1
MgB4,mp-365,0.36409999999999965,6.93534503,0.0,icsd-23460,"{12: 1, 5: 4}","[5, 12]",54121,Mg1B4
MgAlB4,mp-1207086,0.0,7.97435816,0.0,pf-29070,"{12: 1, 13: 1, 5: 4}","[5, 12, 13]",54121131,Mg1Al1B4
MgB4Os3,mp-10503,0.0,7.7254101,0.0,icsd-91243,"{12: 1, 5: 4, 76: 3}","[5, 12, 76]",54121763,Mg1B4Os3
Mg2B4Ru5,mp-541066,0.0,7.29526709,0.0,icsd-61039,"{12: 2, 5: 4, 44: 5}","[5, 12, 44]",54122445,Mg2B4Ru5
MgB4O7,mp-14234,5.7433000000000005,0.60928972,0.0,icsd-34397,"{12: 1, 5: 4, 8: 7}","[5, 8, 12]",5487121,Mg1B4O7
Na3Mg(BO2)5,mp-683990,4.4624999999999995,0.11416885,0.0,icsd-417959,"{11: 3, 12: 1, 5: 5, 8: 10}","[5, 8, 11, 12]",55810113121,Na3Mg1B5O10
LaMg(BO2)5,mp-557758,4.5258,3.25171951,0.0,icsd-23386,"{57: 1, 12: 1, 5: 5, 8: 10}","[5, 8, 12, 57]",55810121571,La1Mg1B5O10
CeMg(BO2)5,mp-1213931,0.28999999999999915,6.23193339,0.0,pf-39254,"{58: 1, 12: 1, 5: 5, 8: 10}","[5, 8, 12, 58]",55810121581,Ce1Mg1B5O10
PrMg(BO2)5,mp-1209670,5.9464999999999995,2.21915998,0.0,pf-7847,"{59: 1, 12: 1, 5: 5, 8: 10}","[5, 8, 12, 59]",55810121591,Pr1Mg1B5O10
NdMg(BO2)5,mp-1210080,5.9713,2.2107821,0.0,pf-18348,"{60: 1, 12: 1, 5: 5, 8: 10}","[5, 8, 12, 60]",55810121601,Nd1Mg1B5O10
SmMg(BO2)5,mp-1208862,6.005599999999999,2.1929075,0.0,pf-28884,"{62: 1, 12: 1, 5: 5, 8: 10}","[5, 8, 12, 62]",55810121621,Sm1Mg1B5O10
TbMg(BO2)5,mp-1208392,6.070600000000001,2.27761494,0.0,pf-27492,"{65: 1, 12: 1, 5: 5, 8: 10}","[5, 8, 12, 65]",55810121651,Tb1Mg1B5O10
MgB7,mp-978275,1.4592,6.08491377,0.0,icsd-261234,"{12: 1, 5: 7}","[5, 12]",57121,Mg1B7
Mg3B7ClO13,mp-23087,5.7052,2.2875263,0.0,icsd-30616,"{12: 3, 5: 7, 17: 1, 8: 13}","[5, 8, 12, 17]",57813123171,Mg3B7Cl1O13
Mg3B7BrO13,mp-1210659,5.9459,2.23377874,0.0,pf-23916,"{12: 3, 5: 7, 35: 1, 8: 13}","[5, 8, 12, 35]",57813123351,Mg3B7Br1O13
MgB9N,mp-30091,1.6752999999999991,5.65348591,0.0,icsd-280938,"{12: 1, 5: 9, 7: 1}","[5, 7, 12]",5971121,Mg1B9N1
MgCo3C,mp-20424,0.0,5.14843556,0.0,icsd-76790,"{12: 1, 27: 3, 6: 1}","[6, 12, 27]",61121273,Mg1Co3C1
Gd6Mg23C,mp-1192643,0.0,3.21469784,0.0,icsd-239055,"{64: 6, 12: 23, 6: 1}","[6, 12, 64]",611223646,Gd6Mg23C1
MgCN2,mp-9166,3.7571,2.40216986,0.0,icsd-75039,"{12: 1, 6: 1, 7: 2}","[6, 7, 12]",6172121,Mg1C1N2
MgCO3,mp-5348,4.9603,2.2261969,0.0,icsd-94588,"{12: 1, 6: 1, 8: 3}","[6, 8, 12]",6183121,Mg1C1O3
RbMgCO3F,mp-1190296,4.716,0.61583785,0.0,icsd-238611,"{37: 1, 12: 1, 6: 1, 8: 3, 9: 1}","[6, 8, 9, 12, 37]",618391121371,Rb1Mg1C1O3F1
Na3MgPCO7,mp-768154,4.2436,1.30329288,0.0,icsd-5025,"{11: 3, 12: 1, 15: 1, 6: 1, 8: 7}","[6, 8, 11, 12, 15]",6187113121151,Na3Mg1P1C1O7
Na2Mg(CO3)2,mp-6026,4.4192,1.33720201,0.0,icsd-9518,"{11: 2, 12: 1, 6: 2, 8: 6}","[6, 8, 11, 12]",6286112121,Na2Mg1C2O6
Na3MgC2ClO6,mp-23653,4.1751,0.63853196,0.0,icsd-158961,"{11: 3, 12: 1, 6: 2, 17: 1, 8: 6}","[6, 8, 11, 12, 17]",6286113121171,Na3Mg1C2Cl1O6
Na3MgC2BrO6,mp-646116,3.8547000000000002,0.72816207,0.0,icsd-27791,"{11: 3, 12: 1, 6: 2, 35: 1, 8: 6}","[6, 8, 11, 12, 35]",6286113121351,Na3Mg1C2Br1O6
K2Mg(CO3)2,mp-8127,4.0485999999999995,1.28584771,0.0,icsd-31295,"{19: 2, 12: 1, 6: 2, 8: 6}","[6, 8, 12, 19]",6286121192,K2Mg1C2O6
CaMg(CO3)2,mp-6459,5.0091,1.68072922,0.0,icsd-193468,"{20: 1, 12: 1, 6: 2, 8: 6}","[6, 8, 12, 20]",6286121201,Ca1Mg1C2O6
Na6Mg2C4SO16,mp-6892,4.5304,1.02513954,0.0,icsd-249169,"{11: 6, 12: 2, 6: 4, 16: 1, 8: 16}","[6, 8, 11, 12, 16]",64816116122161,Na6Mg2C4S1O16
Cs2MgFe(CN)6,mp-7331,4.1775,0.58331741,0.0,icsd-6086,"{55: 2, 12: 1, 26: 1, 6: 6, 7: 6}","[6, 7, 12, 26, 55]",6676121261552,Cs2Mg1Fe1C6N6
Mg3AsN,mp-1206514,2.2817999999999996,4.712618,0.0,pf-18024,"{12: 3, 33: 1, 7: 1}","[7, 12, 33]",71123331,Mg3As1N1
Mg3SbN,mp-1080847,1.6233999999999993,5.70989247,0.0,pf-28577,"{12: 3, 51: 1, 7: 1}","[7, 12, 51]",71123511,Mg3Sb1N1
Mg4P6SN12,mp-6137,4.830500000000001,3.76554225,0.0,icsd-642665,"{12: 4, 15: 6, 16: 1, 7: 12}","[7, 12, 15, 16]",712124156161,Mg4P6S1N12
Na2Mg2P3NO9,mp-1020147,5.0785,1.7160665,0.0,icsd-186877,"{11: 2, 12: 2, 15: 3, 7: 1, 8: 9}","[7, 8, 11, 12, 15]",7189112122153,Na2Mg2P3N1O9
Mg3NF3,mp-7604,3.5818,2.03579424,0.0,icsd-18320,"{12: 3, 7: 1, 9: 3}","[7, 9, 12]",7193123,Mg3N1F3
MgSiN2,mp-3677,3.9662000000000006,5.42413375,0.0,icsd-23669,"{12: 1, 14: 1, 7: 2}","[7, 12, 14]",72121141,Mg1Si1N2
MgGeN2,mp-7798,2.6358,3.46192443,0.0,icsd-636948,"{12: 1, 32: 1, 7: 2}","[7, 12, 32]",72121321,Mg1Ge1N2
MgMoN2,mp-864954,0.7411000000000012,8.86064092,0.0,icsd-185913,"{12: 1, 42: 1, 7: 2}","[7, 12, 42]",72121421,Mg1Mo1N2
CaMg2N2,mp-5795,1.9968999999999997,3.84376126,0.0,icsd-79123,"{20: 1, 12: 2, 7: 2}","[7, 12, 20]",72122201,Ca1Mg2N2
SrMg2N2,mp-10550,1.6917,3.51948279,0.0,icsd-410826,"{38: 1, 12: 2, 7: 2}","[7, 12, 38]",72122381,Sr1Mg2N2
Mg3N2,mp-1559,1.5099999999999998,3.64204818,0.0,icsd-84917,"{12: 3, 7: 2}","[7, 12]",72123,Mg3N2
Mg2PN3,mp-3933,3.5371000000000006,5.46926214,0.0,icsd-50224,"{12: 2, 15: 1, 7: 3}","[7, 12, 15]",73122151,Mg2P1N3
Sr3MgGeN4,mp-567398,1.4132000000000002,3.17851389,0.0,icsd-97382,"{38: 3, 12: 1, 32: 1, 7: 4}","[7, 12, 32, 38]",74121321383,Sr3Mg1Ge1N4
CaMg3SiN4,mp-1019579,2.4021,4.50121286,0.0,icsd-427074,"{20: 1, 12: 3, 14: 1, 7: 4}","[7, 12, 14, 20]",74123141201,Ca1Mg3Si1N4
SrMg3SiN4,mp-1020587,2.4132999999999996,4.51576893,0.0,icsd-427076,"{38: 1, 12: 3, 14: 1, 7: 4}","[7, 12, 14, 38]",74123141381,Sr1Mg3Si1N4
EuMg3SiN4,mp-1019726,0.15890000000000004,6.62145072,0.0,icsd-427075,"{63: 1, 12: 3, 14: 1, 7: 4}","[7, 12, 14, 63]",74123141631,Eu1Mg3Si1N4
SrMgP3N5O2,mp-1020629,4.1352,4.54275276,0.0,icsd-427956,"{38: 1, 12: 1, 15: 3, 7: 5, 8: 2}","[7, 8, 12, 15, 38]",7582121153381,Sr1Mg1P3N5O2
Ba4Mg(SiN3)2,mp-1019517,1.5934999999999997,3.81867829,0.0,icsd-187335,"{56: 4, 12: 1, 14: 2, 7: 6}","[7, 12, 14, 56]",76121142564,Ba4Mg1Si2N6
NaMg2V3O10,mp-555794,2.8158,0.49132125,0.0,icsd-240924,"{11: 1, 12: 2, 23: 3, 8: 10}","[8, 11, 12, 23]",810111122233,Na1Mg2V3O10
K2MgP2WO10,mp-555398,3.4570999999999996,0.48342612,0.0,icsd-59281,"{19: 2, 12: 1, 15: 2, 74: 1, 8: 10}","[8, 12, 15, 19, 74]",810121152192741,K2Mg1P2W1O10
MgTi2(PO5)2,mp-561065,2.7703999999999995,1.57968356,0.0,icsd-156435,"{12: 1, 22: 2, 15: 2, 8: 10}","[8, 12, 15, 22]",810121152222,Mg1Ti2P2O10
Rb2MgP2WO10,mp-561031,3.1724,0.42966065,0.0,icsd-415569,"{37: 2, 12: 1, 15: 2, 74: 1, 8: 10}","[8, 12, 15, 37, 74]",810121152372741,Rb2Mg1P2W1O10
KNaMg2Si4(O5F)2,mp-561491,5.2111,1.16025472,0.0,icsd-98196,"{19: 1, 11: 1, 12: 2, 14: 4, 8: 10, 9: 2}","[8, 9, 11, 12, 14, 19]",81092111122144191,K1Na1Mg2Si4O10F2
MgP4O11,mp-15437,4.9184,0.37831412,0.0,icsd-300214,"{12: 1, 15: 4, 8: 11}","[8, 12, 15]",811121154,Mg1P4O11
Mg3Nb6O11,mp-505365,0.24370000000000047,5.08592387,0.0,icsd-200210,"{12: 3, 41: 6, 8: 11}","[8, 12, 41]",811123416,Mg3Nb6O11
MgO,mp-1265,4.4292,2.7374354,0.0,icsd-64928,"{12: 1, 8: 1}","[8, 12]",81121,Mg1O1
NaMg4V3O12,mp-541220,3.1066000000000003,1.25411361,0.0,icsd-65621,"{11: 1, 12: 4, 23: 3, 8: 12}","[8, 11, 12, 23]",812111124233,Na1Mg4V3O12
NaMg4(AsO4)3,mp-17771,3.1921999999999997,2.03013871,0.0,icsd-59888,"{11: 1, 12: 4, 33: 3, 8: 12}","[8, 11, 12, 33]",812111124333,Na1Mg4As3O12
K2MgSi5O12,mp-667292,4.8799,4.95426696,0.0,icsd-74571,"{19: 2, 12: 1, 14: 5, 8: 12}","[8, 12, 14, 19]",812121145192,K2Mg1Si5O12
Cs2MgSi5O12,mp-1019610,4.5828,5.23026963,0.0,icsd-260435,"{55: 2, 12: 1, 14: 5, 8: 12}","[8, 12, 14, 55]",812121145552,Cs2Mg1Si5O12
MgBi4(PO6)2,mp-1199340,3.0512999999999995,3.89986459,0.0,icsd-262690,"{12: 1, 83: 4, 15: 2, 8: 12}","[8, 12, 15, 83]",812121152834,Mg1Bi4P2O12
K4Mg(MoO4)3,mp-1211857,4.3065,3.22226183,0.0,pf-16336,"{19: 4, 12: 1, 42: 3, 8: 12}","[8, 12, 19, 42]",812121194423,K4Mg1Mo3O12
K2Mg2(SO4)3,mp-6299,5.544899999999999,0.79742603,0.0,icsd-16702,"{19: 2, 12: 2, 16: 3, 8: 12}","[8, 12, 16, 19]",812122163192,K2Mg2S3O12
CaMg2(SO4)3,mp-554094,5.7585999999999995,0.92783376,0.0,icsd-418454,"{20: 1, 12: 2, 16: 3, 8: 12}","[8, 12, 16, 20]",812122163201,Ca1Mg2S3O12
Rb2Mg2(SO4)3,mp-1209620,5.6159,0.65093712,0.0,pf-36196,"{37: 2, 12: 2, 16: 3, 8: 12}","[8, 12, 16, 37]",812122163372,Rb2Mg2S3O12
K2Mg2(MoO4)3,mp-1212049,3.8881,3.27137737,0.0,pf-40276,"{19: 2, 12: 2, 42: 3, 8: 12}","[8, 12, 19, 42]",812122192423,K2Mg2Mo3O12
Rb2Mg2(MoO4)3,mp-1210378,4.3146,-0.61450284,0.0,pf-2470,"{37: 2, 12: 2, 42: 3, 8: 12}","[8, 12, 37, 42]",812122372423,Rb2Mg2Mo3O12
Cs2Mg2(MoO4)3,mp-1213820,4.2715,-0.03457419,0.0,pf-22360,"{55: 2, 12: 2, 42: 3, 8: 12}","[8, 12, 42, 55]",812122423552,Cs2Mg2Mo3O12
Mg2Tl2(MoO4)3,mp-13187,3.8757,0.32475341,0.0,icsd-250400,"{12: 2, 81: 2, 42: 3, 8: 12}","[8, 12, 42, 81]",812122423812,Mg2Tl2Mo3O12
KMg3V3CuO12,mp-1211434,0.8707,1.42952288,0.0,pf-2737,"{19: 1, 12: 3, 23: 3, 29: 1, 8: 12}","[8, 12, 19, 23, 29]",812123191233291,K1Mg3V3Cu1O12
KMg3Cu(AsO4)3,mp-1211416,0.7082000000000002,2.1010716,0.0,pf-18538,"{19: 1, 12: 3, 29: 1, 33: 3, 8: 12}","[8, 12, 19, 29, 33]",812123191291333,K1Mg3Cu1As3O12
Mg3Cu2(AsO4)3,mp-1210695,0.0,3.48663422,0.0,pf-14515,"{12: 3, 29: 2, 33: 3, 8: 12}","[8, 12, 29, 33]",812123292333,Mg3Cu2As3O12