formula,material_id,band_gap,efermi,energy_above_hull,database_IDs,comp_atoms,sorted_keys_comp_atoms,comp_number,new_formula
ZrZnNi4,mp-11533,0.0,6.56790083,0.0,icsd-105477,"{40: 1, 30: 1, 28: 4}","[28, 30, 40]",284301401,Zr1Zn1Ni4
UZnNi4,mp-21899,0.0,8.69747027,0.0,icsd-105438,"{92: 1, 30: 1, 28: 4}","[28, 30, 92]",284301921,U1Zn1Ni4
TbGaNi4,mp-1208350,0.0,6.01996291,0.0,pf-18901,"{65: 1, 31: 1, 28: 4}","[28, 31, 65]",284311651,Tb1Ga1Ni4
Eu3(GaNi)4,mp-636287,0.0,4.22451563,0.0,icsd-103395,"{63: 3, 31: 4, 28: 4}","[28, 31, 63]",284314633,Eu3Ga4Ni4
Pr3(NiGe)4,mp-1103090,0.0,4.86018712,0.0,icsd-600670,"{59: 3, 28: 4, 32: 4}","[28, 32, 59]",284324593,Pr3Ni4Ge4
Hf3(NiGe)4,mp-10076,0.0,7.59619366,0.0,icsd-86690,"{72: 3, 28: 4, 32: 4}","[28, 32, 72]",284324723,Hf3Ni4Ge4
La11(Ni2Ge3)2,mp-627405,0.0,6.90047458,0.0,icsd-62290,"{57: 11, 28: 4, 32: 6}","[28, 32, 57]",2843265711,La11Ni4Ge6
Ce11(Ni2Ge3)2,mp-1213990,0.0,6.90695661,0.0,pf-10260,"{58: 11, 28: 4, 32: 6}","[28, 32, 58]",2843265811,Ce11Ni4Ge6
Y(Ni2As)2,mp-1104069,0.0,7.32902803,0.0,icsd-611100,"{39: 1, 28: 4, 33: 2}","[28, 33, 39]",284332391,Y1Ni4As2
Zr(Ni2As)2,mp-1104853,0.0,7.89509163,0.0,icsd-611111,"{40: 1, 28: 4, 33: 2}","[28, 33, 40]",284332401,Zr1Ni4As2
Tb(Ni2As)2,mp-1103784,0.0,7.32398404,0.0,icsd-611081,"{65: 1, 28: 4, 33: 2}","[28, 33, 65]",284332651,Tb1Ni4As2
Dy(Ni2As)2,mp-11340,0.0,7.31991618,0.0,icsd-610377,"{66: 1, 28: 4, 33: 2}","[28, 33, 66]",284332661,Dy1Ni4As2
Ho(Ni2As)2,mp-1103507,0.0,7.27763446,0.0,icsd-610673,"{67: 1, 28: 4, 33: 2}","[28, 33, 67]",284332671,Ho1Ni4As2
Er(Ni2As)2,mp-510482,0.0,7.32986581,0.0,icsd-173224,"{68: 1, 28: 4, 33: 2}","[28, 33, 68]",284332681,Er1Ni4As2
Tm(Ni2As)2,mp-1104519,0.0,7.31719168,0.0,icsd-611088,"{69: 1, 28: 4, 33: 2}","[28, 33, 69]",284332691,Tm1Ni4As2
Lu(Ni2As)2,mp-1104964,0.0,7.34211716,0.0,icsd-610818,"{71: 1, 28: 4, 33: 2}","[28, 33, 71]",284332711,Lu1Ni4As2
Hf(Ni2As)2,mp-1104089,0.0,8.15198504,0.0,icsd-610651,"{72: 1, 28: 4, 33: 2}","[28, 33, 72]",284332721,Hf1Ni4As2
Sr(Ni2Sn)2,mp-18127,0.0,7.23709601,0.0,icsd-418131,"{38: 1, 28: 4, 50: 2}","[28, 38, 50]",284381502,Sr1Ni4Sn2
Y11In9Ni4,mp-865689,0.0,5.80175749,0.0,icsd-167637,"{39: 11, 49: 9, 28: 4}","[28, 39, 49]",2843911499,Y11In9Ni4
ZrInNi4,mp-637771,0.0,8.45073211,0.0,icsd-59462,"{40: 1, 49: 1, 28: 4}","[28, 40, 49]",284401491,Zr1In1Ni4
CeCdNi4,mp-12006,0.0,7.33436888,0.0,icsd-185107,"{58: 1, 48: 1, 28: 4}","[28, 48, 58]",284481581,Ce1Cd1Ni4
PrCdNi4,mp-1077088,0.0,5.69292574,0.0,icsd-185108,"{59: 1, 48: 1, 28: 4}","[28, 48, 59]",284481591,Pr1Cd1Ni4
NdCdNi4,mp-1077379,0.0,5.73578321,0.0,icsd-185109,"{60: 1, 48: 1, 28: 4}","[28, 48, 60]",284481601,Nd1Cd1Ni4
TbCdNi4,mp-1077082,0.0,5.89454036,0.0,icsd-185111,"{65: 1, 48: 1, 28: 4}","[28, 48, 65]",284481651,Tb1Cd1Ni4
DyCdNi4,mp-1071811,0.0,5.91408045,0.0,icsd-185112,"{66: 1, 48: 1, 28: 4}","[28, 48, 66]",284481661,Dy1Cd1Ni4
HoCdNi4,mp-1077332,0.0,5.83684179,0.0,icsd-185113,"{67: 1, 48: 1, 28: 4}","[28, 48, 67]",284481671,Ho1Cd1Ni4
ErCdNi4,mp-1072598,0.0,5.86261565,0.0,icsd-185114,"{68: 1, 48: 1, 28: 4}","[28, 48, 68]",284481681,Er1Cd1Ni4
TmCdNi4,mp-1072553,0.0,5.89200076,0.0,icsd-185115,"{69: 1, 48: 1, 28: 4}","[28, 48, 69]",284481691,Tm1Cd1Ni4
LuCdNi4,mp-1077095,0.0,5.89098587,0.0,icsd-423941,"{71: 1, 48: 1, 28: 4}","[28, 48, 71]",284481711,Lu1Cd1Ni4
CeInNi4,mp-1206393,0.0,9.09962026,0.0,pf-1965,"{58: 1, 49: 1, 28: 4}","[28, 49, 58]",284491581,Ce1In1Ni4
NdInNi4,mp-1206218,0.0,7.44668371,0.0,pf-33439,"{60: 1, 49: 1, 28: 4}","[28, 49, 60]",284491601,Nd1In1Ni4
GdInNi4,mp-1206797,0.0,6.85085475,0.0,pf-21652,"{64: 1, 49: 1, 28: 4}","[28, 49, 64]",284491641,Gd1In1Ni4
HoInNi4,mp-1206024,0.0,7.63591233,0.0,pf-11150,"{67: 1, 49: 1, 28: 4}","[28, 49, 67]",284491671,Ho1In1Ni4
ErInNi4,mp-1024983,0.0,7.65234462,0.0,pf-21723,"{68: 1, 49: 1, 28: 4}","[28, 49, 68]",284491681,Er1In1Ni4
TmInNi4,mp-20896,0.0,7.68013244,0.0,icsd-415030,"{69: 1, 49: 1, 28: 4}","[28, 49, 69]",284491691,Tm1In1Ni4
LuInNi4,mp-1206270,0.0,7.56937359,0.0,pf-11229,"{71: 1, 49: 1, 28: 4}","[28, 49, 71]",284491711,Lu1In1Ni4
La11In9Ni4,mp-974045,0.0,8.01352277,0.0,icsd-167624,"{57: 11, 49: 9, 28: 4}","[28, 49, 57]",2844995711,La11In9Ni4
Ce11In9Ni4,mp-1192200,0.0,8.05789485,0.0,icsd-236573,"{58: 11, 49: 9, 28: 4}","[28, 49, 58]",2844995811,Ce11In9Ni4
Pr11In9Ni4,mp-862840,0.0,5.54080106,0.0,icsd-167628,"{59: 11, 49: 9, 28: 4}","[28, 49, 59]",2844995911,Pr11In9Ni4
Nd11In9Ni4,mp-985562,0.0,5.713078,0.0,icsd-167630,"{60: 11, 49: 9, 28: 4}","[28, 49, 60]",2844996011,Nd11In9Ni4
Sm11In9Ni4,mp-1191859,0.0,5.07343002,0.0,icsd-167632,"{62: 11, 49: 9, 28: 4}","[28, 49, 62]",2844996211,Sm11In9Ni4
Gd11In9Ni4,mp-1192974,0.0,5.50882571,0.0,icsd-167634,"{64: 11, 49: 9, 28: 4}","[28, 49, 64]",2844996411,Gd11In9Ni4
Tb11In9Ni4,mp-1191293,0.0,5.86588499,0.0,icsd-167635,"{65: 11, 49: 9, 28: 4}","[28, 49, 65]",2844996511,Tb11In9Ni4
Ni4(Bi4I)3,mp-541751,0.0,5.64305847,0.0,icsd-405639,"{28: 4, 83: 12, 53: 3}","[28, 53, 83]",2845338312,Ni4Bi12I3
TbNi4Au,mp-1077552,0.0,6.27750197,0.0,icsd-612229,"{65: 1, 28: 4, 79: 1}","[28, 65, 79]",284651791,Tb1Ni4Au1
DyNi4Au,mp-1077279,0.0,6.29142509,0.0,icsd-611799,"{66: 1, 28: 4, 79: 1}","[28, 66, 79]",284661791,Dy1Ni4Au1
HoNi4Au,mp-1077340,0.0,6.22863529,0.0,icsd-611998,"{67: 1, 28: 4, 79: 1}","[28, 67, 79]",284671791,Ho1Ni4Au1
ErNi4Au,mp-1025001,0.0,6.28435022,0.0,icsd-611829,"{68: 1, 28: 4, 79: 1}","[28, 68, 79]",284681791,Er1Ni4Au1
TmNi4Au,mp-1077547,0.0,6.29813772,0.0,icsd-612231,"{69: 1, 28: 4, 79: 1}","[28, 69, 79]",284691791,Tm1Ni4Au1
LuNi4Au,mp-1072381,0.0,6.30032218,0.0,icsd-612133,"{71: 1, 28: 4, 79: 1}","[28, 71, 79]",284711791,Lu1Ni4Au1
Ni4W,mp-30811,0.0,7.80024469,0.0,icsd-105452,"{28: 4, 74: 1}","[28, 74]",284741,Ni4W1
Ga3Ni5,mp-11398,0.0,7.02996943,0.0,icsd-634860,"{31: 3, 28: 5}","[28, 31]",285313,Ga3Ni5
YNi5Ge3,mp-21806,0.0,7.43767914,0.0,icsd-76357,"{39: 1, 28: 5, 32: 3}","[28, 32, 39]",285323391,Y1Ni5Ge3
HoNi5Ge3,mp-1196011,0.0,6.38783464,0.0,icsd-600087,"{67: 1, 28: 5, 32: 3}","[28, 32, 67]",285323671,Ho1Ni5Ge3
ErNi5Ge3,mp-1201645,0.0,6.30615914,0.0,icsd-600088,"{68: 1, 28: 5, 32: 3}","[28, 32, 68]",285323681,Er1Ni5Ge3
UNi5Ge3,mp-21826,0.0,8.01368437,0.0,icsd-95215,"{92: 1, 28: 5, 32: 3}","[28, 32, 92]",285323921,U1Ni5Ge3
Ba2Ni5Ge4,mp-1095498,0.0,5.37753024,0.0,icsd-423268,"{56: 2, 28: 5, 32: 4}","[28, 32, 56]",285324562,Ba2Ni5Ge4
Ni5As2,mp-941,0.0,8.59475039,0.0,icsd-611025,"{28: 5, 33: 2}","[28, 33]",285332,Ni5As2
SrNi5As3,mp-17396,0.0,6.82534737,0.0,icsd-33915,"{38: 1, 28: 5, 33: 3}","[28, 33, 38]",285333381,Sr1Ni5As3
LaNi5As3,mp-582126,0.0,8.47118447,0.0,icsd-414080,"{57: 1, 28: 5, 33: 3}","[28, 33, 57]",285333571,La1Ni5As3
EuNi5As3,mp-16838,0.0,6.94013421,0.0,icsd-33916,"{63: 1, 28: 5, 33: 3}","[28, 33, 63]",285333631,Eu1Ni5As3
YNi5,mp-2152,0.0,6.50155335,0.0,icsd-647084,"{39: 1, 28: 5}","[28, 39]",285391,Y1Ni5
LaInNi5,mp-1212410,0.0,8.60897189,0.0,pf-35492,"{57: 1, 49: 1, 28: 5}","[28, 49, 57]",285491571,La1In1Ni5
EuInNi5,mp-1006242,0.0,7.76968145,0.0,icsd-261705,"{63: 1, 49: 1, 28: 5}","[28, 49, 63]",285491631,Eu1In1Ni5
LaNi5Sn,mp-1193093,0.0,9.06718757,0.0,icsd-641587,"{57: 1, 28: 5, 50: 1}","[28, 50, 57]",285501571,La1Ni5Sn1
CeNi5Sn,mp-574423,0.0,8.91253904,0.0,icsd-20350,"{58: 1, 28: 5, 50: 1}","[28, 50, 58]",285501581,Ce1Ni5Sn1
PrNi5Sn,mp-1193428,0.0,7.58245074,0.0,icsd-646285,"{59: 1, 28: 5, 50: 1}","[28, 50, 59]",285501591,Pr1Ni5Sn1
NdNi5Sn,mp-1192615,0.0,7.62937724,0.0,icsd-290362,"{60: 1, 28: 5, 50: 1}","[28, 50, 60]",285501601,Nd1Ni5Sn1
LuNi5Sn,mp-865201,0.0,7.71655154,0.0,icsd-167138,"{71: 1, 28: 5, 50: 1}","[28, 50, 71]",285501711,Lu1Ni5Sn1
LaNi5,mp-2317,0.0,8.42713528,0.0,icsd-641520,"{57: 1, 28: 5}","[28, 57]",285571,La1Ni5
CeNi5,mp-1910,0.0,8.17185468,0.0,icsd-102232,"{58: 1, 28: 5}","[28, 58]",285581,Ce1Ni5
PrNi5,mp-2370,0.0,6.44883295,0.0,icsd-182521,"{59: 1, 28: 5}","[28, 59]",285591,Pr1Ni5
NdNi5,mp-1824,0.0,6.46727401,0.0,icsd-160055,"{60: 1, 28: 5}","[28, 60]",285601,Nd1Ni5
SmNi5,mp-1075,0.0,6.31236501,0.0,icsd-646719,"{62: 1, 28: 5}","[28, 62]",285621,Sm1Ni5
EuNi5,mp-22311,0.0,5.85950551,0.0,icsd-631421,"{63: 1, 28: 5}","[28, 63]",285631,Eu1Ni5
GdNi5,mp-21305,0.0,6.38890532,0.0,icsd-168658,"{64: 1, 28: 5}","[28, 64]",285641,Gd1Ni5
TbNi5,mp-30808,0.0,6.52948298,0.0,icsd-186005,"{65: 1, 28: 5}","[28, 65]",285651,Tb1Ni5
DyNi5,mp-1179,0.0,6.49261883,0.0,icsd-103335,"{66: 1, 28: 5}","[28, 66]",285661,Dy1Ni5
HoNi5,mp-1553,0.0,6.53197341,0.0,icsd-639471,"{67: 1, 28: 5}","[28, 67]",285671,Ho1Ni5
ErNi5,mp-853,0.0,6.58184248,0.0,icsd-196418,"{68: 1, 28: 5}","[28, 68]",285681,Er1Ni5
TmNi5,mp-11526,0.0,6.45011115,0.0,icsd-105433,"{69: 1, 28: 5}","[28, 69]",285691,Tm1Ni5
LuNi5,mp-11491,0.0,6.44359677,0.0,icsd-104806,"{71: 1, 28: 5}","[28, 71]",285711,Lu1Ni5
ThNi5,mp-1567,0.0,8.02152364,0.0,icsd-646923,"{90: 1, 28: 5}","[28, 90]",285901,Th1Ni5
UNi5,mp-2838,0.0,9.46741866,0.0,icsd-647008,"{92: 1, 28: 5}","[28, 92]",285921,U1Ni5
NpNi5,mp-1025137,0.0,9.60178327,0.0,pf-41467,"{93: 1, 28: 5}","[28, 93]",285931,Np1Ni5
PuNi5,mp-21315,0.0,8.89789966,0.0,icsd-105323,"{94: 1, 28: 5}","[28, 94]",285941,Pu1Ni5
Y3(GaNi3)2,mp-1191954,0.0,5.52189671,0.0,icsd-634985,"{39: 3, 31: 2, 28: 6}","[28, 31, 39]",286312393,Y3Ga2Ni6
Pr3(GaNi3)2,mp-1191719,0.0,5.69710252,0.0,icsd-634879,"{59: 3, 31: 2, 28: 6}","[28, 31, 59]",286312593,Pr3Ga2Ni6
Nd3(GaNi3)2,mp-1190620,0.0,5.54325294,0.0,icsd-634818,"{60: 3, 31: 2, 28: 6}","[28, 31, 60]",286312603,Nd3Ga2Ni6
Sm3(GaNi3)2,mp-504614,0.0,5.43540608,0.0,icsd-20008,"{62: 3, 31: 2, 28: 6}","[28, 31, 62]",286312623,Sm3Ga2Ni6
Gd3(GaNi3)2,mp-1191116,0.0,5.50345235,0.0,icsd-634226,"{64: 3, 31: 2, 28: 6}","[28, 31, 64]",286312643,Gd3Ga2Ni6
Tb3(GaNi3)2,mp-1192010,0.0,5.49791754,0.0,icsd-634938,"{65: 3, 31: 2, 28: 6}","[28, 31, 65]",286312653,Tb3Ga2Ni6
Dy3(GaNi3)2,mp-1191661,0.0,5.49108247,0.0,icsd-629715,"{66: 3, 31: 2, 28: 6}","[28, 31, 66]",286312663,Dy3Ga2Ni6
Ho3(GaNi3)2,mp-1191722,0.0,5.46525934,0.0,icsd-634381,"{67: 3, 31: 2, 28: 6}","[28, 31, 67]",286312673,Ho3Ga2Ni6
Er3(GaNi3)2,mp-1190853,0.0,5.54739961,0.0,icsd-630554,"{68: 3, 31: 2, 28: 6}","[28, 31, 68]",286312683,Er3Ga2Ni6
Tm3(GaNi3)2,mp-1192294,0.0,5.44513726,0.0,icsd-634960,"{69: 3, 31: 2, 28: 6}","[28, 31, 69]",286312693,Tm3Ga2Ni6
Y12InNi6,mp-1207989,0.0,4.15850317,0.0,pf-18746,"{39: 12, 49: 1, 28: 6}","[28, 39, 49]",2863912491,Y12In1Ni6
Y12Ni6Pb,mp-600480,0.0,4.17508052,0.0,icsd-54614,"{39: 12, 28: 6, 82: 1}","[28, 39, 82]",2863912821,Y12Ni6Pb1
Nb7Ni6,mp-1104237,0.0,6.28042406,0.0,icsd-645077,"{41: 7, 28: 6}","[28, 41]",286417,Nb7Ni6
La5In11Ni6,mp-1192186,0.0,8.65466825,0.0,icsd-639855,"{57: 5, 49: 11, 28: 6}","[28, 49, 57]",2864911575,La5In11Ni6
Nd12InNi6,mp-1211308,0.0,4.23901564,0.0,pf-11905,"{60: 12, 49: 1, 28: 6}","[28, 49, 60]",2864916012,Nd12In1Ni6
La12Ni6Pb,mp-1211984,0.0,7.77518305,0.0,pf-35470,"{57: 12, 28: 6, 82: 1}","[28, 57, 82]",2865712821,La12Ni6Pb1
Pr12Ni6Pb,mp-1210858,0.0,4.38572287,0.0,pf-13104,"{59: 12, 28: 6, 82: 1}","[28, 59, 82]",2865912821,Pr12Ni6Pb1
Nd12Ni6Pb,mp-1210867,0.0,4.25374923,0.0,pf-23629,"{60: 12, 28: 6, 82: 1}","[28, 60, 82]",2866012821,Nd12Ni6Pb1
Tb12Ni6Pb,mp-1208738,0.0,4.31340445,0.0,pf-13178,"{65: 12, 28: 6, 82: 1}","[28, 65, 82]",2866512821,Tb12Ni6Pb1
Dy12Ni6Pb,mp-1213460,0.0,4.31752898,0.0,pf-23703,"{66: 12, 28: 6, 82: 1}","[28, 66, 82]",2866612821,Dy12Ni6Pb1
Ho12Ni6Pb,mp-1212509,0.0,4.12786492,0.0,pf-34208,"{67: 12, 28: 6, 82: 1}","[28, 67, 82]",2866712821,Ho12Ni6Pb1
Y2Ni7,mp-574339,0.0,6.40130209,0.0,icsd-647051,"{39: 2, 28: 7}","[28, 39]",287392,Y2Ni7
Zr2Ni7,mp-2717,0.0,6.90258878,0.0,icsd-2778,"{40: 2, 28: 7}","[28, 40]",287402,Zr2Ni7
La23Cd4Ni7,mp-1213625,0.0,7.48014847,0.0,pf-31942,"{57: 23, 48: 4, 28: 7}","[28, 48, 57]",2874845723,La23Cd4Ni7
Pr23Cd4Ni7,mp-1210494,0.0,4.04785279,0.0,pf-10986,"{59: 23, 48: 4, 28: 7}","[28, 48, 59]",2874845923,Pr23Cd4Ni7
Nd23Cd4Ni7,mp-1210583,0.0,3.73339293,0.0,pf-21545,"{60: 23, 48: 4, 28: 7}","[28, 48, 60]",2874846023,Nd23Cd4Ni7
Dy2Ni7Sn3,mp-568709,0.0,7.8097944,0.0,icsd-241124,"{66: 2, 28: 7, 50: 3}","[28, 50, 66]",287503662,Dy2Ni7Sn3
La2Ni7,mp-1188908,0.0,8.76862973,0.0,icsd-641502,"{57: 2, 28: 7}","[28, 57]",287572,La2Ni7
Ce2Ni7,mp-1204381,0.0,8.55978114,0.0,icsd-621585,"{58: 2, 28: 7}","[28, 58]",287582,Ce2Ni7
Pr2Ni7,mp-1201333,0.0,6.1534858,0.0,icsd-646240,"{59: 2, 28: 7}","[28, 59]",287592,Pr2Ni7
Nd2Ni7,mp-1190187,0.0,6.20410299,0.0,icsd-645589,"{60: 2, 28: 7}","[28, 60]",287602,Nd2Ni7
Sm2Ni7,mp-1200995,0.0,5.47172014,0.0,icsd-646703,"{62: 2, 28: 7}","[28, 62]",287622,Sm2Ni7
Gd2Ni7,mp-669713,0.0,6.37737425,0.0,icsd-636019,"{64: 2, 28: 7}","[28, 64]",287642,Gd2Ni7
Tb2Ni7,mp-1189379,0.0,6.40771908,0.0,icsd-646863,"{65: 2, 28: 7}","[28, 65]",287652,Tb2Ni7
Dy2Ni7,mp-865205,0.0,6.36447337,0.0,icsd-629979,"{66: 2, 28: 7}","[28, 66]",287662,Dy2Ni7
Ho2Ni7,mp-1190300,0.0,6.23341251,0.0,icsd-639452,"{67: 2, 28: 7}","[28, 67]",287672,Ho2Ni7
Er2Ni7,mp-1188219,0.0,6.24264293,0.0,icsd-630834,"{68: 2, 28: 7}","[28, 68]",287682,Er2Ni7
Th2Ni7,mp-867004,0.0,8.39991786,0.0,icsd-646927,"{90: 2, 28: 7}","[28, 90]",287902,Th2Ni7
LaNi9Ge4,mp-1194233,0.0,7.61117372,0.0,icsd-184406,"{57: 1, 28: 9, 32: 4}","[28, 32, 57]",289324571,La1Ni9Ge4
BaNi9As5,mp-540991,0.0,6.8417211,0.0,icsd-33919,"{56: 1, 28: 9, 33: 5}","[28, 33, 56]",289335561,Ba1Ni9As5
Ho10In20Ni9,mp-30729,0.0,7.14564232,0.0,icsd-104414,"{67: 10, 49: 20, 28: 9}","[28, 49, 67]",28949206710,Ho10In20Ni9
Er10In20Ni9,mp-1199385,0.0,7.24571442,0.0,icsd-600961,"{68: 10, 49: 20, 28: 9}","[28, 49, 68]",28949206810,Er10In20Ni9
Tm10In20Ni9,mp-1199794,0.0,7.20697775,0.0,icsd-420604,"{69: 10, 49: 20, 28: 9}","[28, 49, 69]",28949206910,Tm10In20Ni9
Lu10In20Ni9,mp-1198338,0.0,7.30215521,0.0,icsd-600963,"{71: 10, 49: 20, 28: 9}","[28, 49, 71]",28949207110,Lu10In20Ni9
LaIn2Ni9,mp-1191038,0.0,8.748522,0.0,icsd-192652,"{57: 1, 49: 2, 28: 9}","[28, 49, 57]",289492571,La1In2Ni9
PrIn2Ni9,mp-1191416,0.0,7.88878229,0.0,icsd-192642,"{59: 1, 49: 2, 28: 9}","[28, 49, 59]",289492591,Pr1In2Ni9
NdIn2Ni9,mp-1190769,0.0,7.78587273,0.0,icsd-192655,"{60: 1, 49: 2, 28: 9}","[28, 49, 60]",289492601,Nd1In2Ni9
EuIn2Ni9,mp-1191370,0.0,7.387117,0.0,icsd-192656,"{63: 1, 49: 2, 28: 9}","[28, 49, 63]",289492631,Eu1In2Ni9
GdIn2Ni9,mp-1191355,0.0,7.80533686,0.0,icsd-192646,"{64: 1, 49: 2, 28: 9}","[28, 49, 64]",289492641,Gd1In2Ni9
LiSiNi2,mp-10181,0.0,8.17937719,0.0,icsd-44819,"{3: 1, 14: 1, 28: 2}","[3, 14, 28]",31141282,Li1Si1Ni2
Li(NiP)2,mp-8310,0.0,7.18928938,0.0,icsd-36511,"{3: 1, 28: 2, 15: 2}","[3, 15, 28]",31152282,Li1Ni2P2
LiNi2Ge,mp-16349,0.0,7.38441401,0.0,icsd-53673,"{3: 1, 28: 2, 32: 1}","[3, 28, 32]",31282321,Li1Ni2Ge1
LiNi2Sn,mp-13915,0.0,7.49428482,0.0,icsd-25325,"{3: 1, 28: 2, 50: 1}","[3, 28, 50]",31282501,Li1Ni2Sn1
Li(NiGe)6,mp-15949,0.0,6.32562647,0.0,icsd-41463,"{3: 1, 28: 6, 32: 6}","[3, 28, 32]",31286326,Li1Ni6Ge6
LiNi2P3O10,mp-17664,3.6058000000000003,2.5026595,0.0,icsd-82383,"{3: 1, 28: 2, 15: 3, 8: 10}","[3, 8, 15, 28]",31810153282,Li1Ni2P3O10
LiNiPO4,mp-22417,3.6207,2.69071638,0.0,icsd-402760,"{3: 1, 28: 1, 15: 1, 8: 4}","[3, 8, 15, 28]",3184151281,Li1Ni1P1O4
NaLiNiPO4F,mp-1200250,4.5594,6.31040125,0.0,icsd-423847,"{11: 1, 3: 1, 28: 1, 15: 1, 8: 4, 9: 1}","[3, 8, 9, 11, 15, 28]",318491111151281,Na1Li1Ni1P1O4F1
LiCaNiF6,mp-559584,0.0,-1.33391318,0.0,icsd-32732,"{3: 1, 20: 1, 28: 1, 9: 6}","[3, 9, 20, 28]",3196201281,Li1Ca1Ni1F6
SrLiNiF6,mp-559663,0.0,-1.56793954,0.0,icsd-32733,"{38: 1, 3: 1, 28: 1, 9: 6}","[3, 9, 28, 38]",3196281381,Sr1Li1Ni1F6
Li2Ni12P7,mp-541010,0.0,8.6602192,0.0,icsd-39598,"{3: 2, 28: 12, 15: 7}","[3, 15, 28]",321572812,Li2Ni12P7
Li2Ni3(P2O7)2,mp-25991,3.6043999999999996,1.99653307,0.0,icsd-83662,"{3: 2, 28: 3, 15: 4, 8: 14}","[3, 8, 15, 28]",32814154283,Li2Ni3P4O14
Li2NiO3,mp-556550,1.1037,2.36381262,0.0,icsd-153094,"{3: 2, 28: 1, 8: 3}","[3, 8, 28]",3283281,Li2Ni1O3
Li2Mn3NiO8,mp-771112,0.9363000000000001,2.21629323,0.0,icsd-187804,"{3: 2, 25: 3, 28: 1, 8: 8}","[3, 8, 25, 28]",3288253281,Li2Mn3Ni1O8
Li2NiGe3O8,mp-21650,3.0431,5.15184724,0.0,icsd-86168,"{3: 2, 28: 1, 32: 3, 8: 8}","[3, 8, 28, 32]",3288281323,Li2Ni1Ge3O8
Sr3Li3(NiN)4,mp-568322,0.0,3.46858268,0.0,icsd-33902,"{38: 3, 3: 3, 28: 4, 7: 4}","[3, 7, 28, 38]",3374284383,Sr3Li3Ni4N4
Li3Ni2SbO6,mp-1102490,2.8084,3.87788242,0.0,icsd-183999,"{3: 3, 28: 2, 51: 1, 8: 6}","[3, 8, 28, 51]",3386282511,Li3Ni2Sb1O6
Li3NiF6,mp-1211465,2.3599,-2.25901361,0.0,pf-30988,"{3: 3, 28: 1, 9: 6}","[3, 9, 28]",3396281,Li3Ni1F6
Li5Ni9P7,mp-1211138,0.0,6.95978,0.0,pf-40936,"{3: 5, 28: 9, 15: 7}","[3, 15, 28]",35157289,Li5Ni9P7
Li5Ni9As7,mp-1211146,0.0,5.79685493,0.0,pf-9569,"{3: 5, 28: 9, 33: 7}","[3, 28, 33]",35289337,Li5Ni9As7
Li5(NiN)3,mp-7080,0.0,3.23053149,0.0,icsd-411152,"{3: 5, 28: 3, 7: 3}","[3, 7, 28]",3573283,Li5Ni3N3
Li6NiCl8,mp-1211124,1.3726,1.36770082,0.0,pf-25674,"{3: 6, 28: 1, 17: 8}","[3, 17, 28]",36178281,Li6Ni1Cl8
BeNi,mp-1033,0.0,7.20320726,0.0,icsd-616367,"{4: 1, 28: 1}","[4, 28]",41281,Be1Ni1
Zr6Be15Ni8,mp-1207425,0.0,4.93313437,0.0,pf-16509,"{40: 6, 4: 15, 28: 8}","[4, 28, 40]",415288406,Zr6Be15Ni8
Be15(Nb3Ni4)2,mp-1214229,0.0,5.53829955,0.0,pf-5983,"{4: 15, 41: 6, 28: 8}","[4, 28, 41]",415288416,Be15Nb6Ni8
Hf6Be15Ni8,mp-1212450,0.0,5.35036744,0.0,pf-4649,"{72: 6, 4: 15, 28: 8}","[4, 28, 72]",415288726,Hf6Be15Ni8
Ta6Be15Ni8,mp-1208343,0.0,5.89773207,0.0,pf-37468,"{73: 6, 4: 15, 28: 8}","[4, 28, 73]",415288736,Ta6Be15Ni8
Rb2Be3Ni2F12,mp-1209719,6.149,-1.92366547,0.0,pf-16167,"{37: 2, 4: 3, 28: 2, 9: 12}","[4, 9, 28, 37]",43912282372,Rb2Be3Ni2F12
Be3Tl2Ni2F12,mp-1214337,5.4318,-0.57227161,0.0,pf-26716,"{4: 3, 81: 2, 28: 2, 9: 12}","[4, 9, 28, 81]",43912282812,Be3Tl2Ni2F12
Y2NiB10,mp-1207701,0.0,6.37663633,0.0,pf-11225,"{39: 2, 28: 1, 5: 10}","[5, 28, 39]",510281392,Y2Ni1B10
Ce2NiB10,mp-21169,0.0,8.32256215,0.0,icsd-91245,"{58: 2, 28: 1, 5: 10}","[5, 28, 58]",510281582,Ce2Ni1B10
Pr2NiB10,mp-1209651,0.0,6.34652018,0.0,pf-21806,"{59: 2, 28: 1, 5: 10}","[5, 28, 59]",510281592,Pr2Ni1B10
Nd2NiB10,mp-22471,0.0,6.13821354,0.0,icsd-91246,"{60: 2, 28: 1, 5: 10}","[5, 28, 60]",510281602,Nd2Ni1B10
Sm2NiB10,mp-1208882,0.0,6.22045501,0.0,pf-32250,"{62: 2, 28: 1, 5: 10}","[5, 28, 62]",510281622,Sm2Ni1B10
Gd2NiB10,mp-1212642,0.0,5.92146443,0.0,pf-831,"{64: 2, 28: 1, 5: 10}","[5, 28, 64]",510281642,Gd2Ni1B10
Tb2NiB10,mp-1208523,0.0,6.31907102,0.0,pf-11301,"{65: 2, 28: 1, 5: 10}","[5, 28, 65]",510281652,Tb2Ni1B10
Dy2NiB10,mp-1213050,0.0,6.2848406,0.0,pf-21892,"{66: 2, 28: 1, 5: 10}","[5, 28, 66]",510281662,Dy2Ni1B10
Th2NiB10,mp-20109,0.0,8.56366987,0.0,icsd-78823,"{90: 2, 28: 1, 5: 10}","[5, 28, 90]",510281902,Th2Ni1B10
Si2Ni6B,mp-4720,0.0,9.20695726,0.0,icsd-44346,"{14: 2, 28: 6, 5: 1}","[5, 14, 28]",51142286,Si2Ni6B1
CaNi4B,mp-8307,0.0,6.14688479,0.0,icsd-36504,"{20: 1, 28: 4, 5: 1}","[5, 20, 28]",51201284,Ca1Ni4B1
Ni2B,mp-2536,0.0,8.79724342,0.0,icsd-75792,"{28: 2, 5: 1}","[5, 28]",51282,Ni2B1
Na2Ni2(B4O7)3,mp-704915,3.5425000000000004,1.33299544,0.0,icsd-414114,"{11: 2, 28: 2, 5: 12, 8: 21}","[5, 8, 11, 28]",512821112282,Na2Ni2B12O21
Ni3B,mp-2058,0.0,8.20622743,0.0,icsd-603892,"{28: 3, 5: 1}","[5, 28]",51283,Ni3B1
LaNi3B,mp-1205795,0.0,8.10757474,0.0,pf-22786,"{57: 1, 28: 3, 5: 1}","[5, 28, 57]",51283571,La1Ni3B1
YNi4B,mp-7559,0.0,6.73267423,0.0,icsd-615076,"{39: 1, 28: 4, 5: 1}","[5, 28, 39]",51284391,Y1Ni4B1
LaNi4B,mp-4634,0.0,8.71276714,0.0,icsd-170617,"{57: 1, 28: 4, 5: 1}","[5, 28, 57]",51284571,La1Ni4B1
CeNi4B,mp-1095459,0.0,8.49498204,0.0,icsd-612812,"{58: 1, 28: 4, 5: 1}","[5, 28, 58]",51284581,Ce1Ni4B1
PrNi4B,mp-1101772,0.0,6.67804133,0.0,icsd-614412,"{59: 1, 28: 4, 5: 1}","[5, 28, 59]",51284591,Pr1Ni4B1
NdNi4B,mp-8048,0.0,6.70389057,0.0,icsd-20882,"{60: 1, 28: 4, 5: 1}","[5, 28, 60]",51284601,Nd1Ni4B1
EuNi4B,mp-1103796,0.0,6.19228458,0.0,icsd-613856,"{63: 1, 28: 4, 5: 1}","[5, 28, 63]",51284631,Eu1Ni4B1
GdNi4B,mp-1102948,0.0,6.49740355,0.0,icsd-614352,"{64: 1, 28: 4, 5: 1}","[5, 28, 64]",51284641,Gd1Ni4B1
TbNi4B,mp-12964,0.0,6.7066691,0.0,icsd-156975,"{65: 1, 28: 4, 5: 1}","[5, 28, 65]",51284651,Tb1Ni4B1