formula,material_id,band_gap,efermi,energy_above_hull,database_IDs,comp_atoms,sorted_keys_comp_atoms,comp_number,new_formula
Rb2NiAs2,mp-1205648,0.5596999999999999,2.59738137,0.0,pf-15280,"{37: 2, 28: 1, 33: 2}","[28, 33, 37]",281332372,Rb2Ni1As2
Zr2NiAs2,mp-8786,0.0,6.78600256,0.0,icsd-68141,"{40: 2, 28: 1, 33: 2}","[28, 33, 40]",281332402,Zr2Ni1As2
NbNiAs2,mp-504835,0.0,7.18606647,0.0,icsd-38412,"{41: 1, 28: 1, 33: 2}","[28, 33, 41]",281332411,Nb1Ni1As2
Cs2NiAs2,mp-1206689,0.5567000000000002,3.22708766,0.0,pf-12936,"{55: 2, 28: 1, 33: 2}","[28, 33, 55]",281332552,Cs2Ni1As2
Tb2NiAs2,mp-1079205,0.0,5.17741504,0.0,icsd-611083,"{65: 2, 28: 1, 33: 2}","[28, 33, 65]",281332652,Tb2Ni1As2
UNiAs2,mp-22159,0.0,9.12060549,0.0,icsd-44031,"{92: 1, 28: 1, 33: 2}","[28, 33, 92]",281332921,U1Ni1As2
NiSe,mp-15651,0.0,6.55734533,0.0,icsd-42596,"{28: 1, 34: 1}","[28, 34]",281341,Ni1Se1
NiSbSe,mp-10847,0.0,7.45885584,0.0,icsd-646435,"{28: 1, 51: 1, 34: 1}","[28, 34, 51]",281341511,Ni1Sb1Se1
U8NiSe17,mp-1192861,0.0,6.71231959,0.0,icsd-238175,"{92: 8, 28: 1, 34: 17}","[28, 34, 92]",2813417928,U8Ni1Se17
NiSe2,mp-20901,0.0,6.29710288,0.0,icsd-150559,"{28: 1, 34: 2}","[28, 34]",281342,Ni1Se2
Ta2NiSe5,mp-541070,0.0,3.49245284,0.0,icsd-61148,"{73: 2, 28: 1, 34: 5}","[28, 34, 73]",281345732,Ta2Ni1Se5
Nb4NiSe8,mp-1193543,0.0,4.67006266,0.0,icsd-645099,"{41: 4, 28: 1, 34: 8}","[28, 34, 41]",281348414,Nb4Ni1Se8
Y6NiBr10,mp-1188648,0.48240000000000016,3.01036477,0.0,icsd-424466,"{39: 6, 28: 1, 35: 10}","[28, 35, 39]",2813510396,Y6Ni1Br10
Tb6NiBr10,mp-1189005,0.4283000000000001,2.98323358,0.0,icsd-424435,"{65: 6, 28: 1, 35: 10}","[28, 35, 65]",2813510656,Tb6Ni1Br10
Th6NiBr15,mp-1208385,0.0,3.23295827,0.0,pf-13344,"{90: 6, 28: 1, 35: 15}","[28, 35, 90]",2813515906,Th6Ni1Br15
NiBr2,mp-27637,0.0,3.09889213,0.0,icsd-22106,"{28: 1, 35: 2}","[28, 35]",281352,Ni1Br2
RbNiBr3,mp-27409,0.47230000000000016,1.24427153,0.0,icsd-15011,"{37: 1, 28: 1, 35: 3}","[28, 35, 37]",281353371,Rb1Ni1Br3
CsNiBr3,mp-1080570,0.0,1.60249551,0.0,icsd-423829,"{55: 1, 28: 1, 35: 3}","[28, 35, 55]",281353551,Cs1Ni1Br3
La3NiBr3,mp-866714,0.0,5.66107059,0.0,icsd-391469,"{57: 3, 28: 1, 35: 3}","[28, 35, 57]",281353573,La3Ni1Br3
SrNiSn3,mp-30805,0.0,6.92598601,0.0,icsd-105366,"{38: 1, 28: 1, 50: 3}","[28, 38, 50]",281381503,Sr1Ni1Sn3
YNi,mp-1364,0.0,4.79436289,0.0,icsd-653589,"{39: 1, 28: 1}","[28, 39]",281391,Y1Ni1
Y10Cd3Ni,mp-1192560,0.0,3.28778326,0.0,icsd-428617,"{39: 10, 48: 3, 28: 1}","[28, 39, 48]",2813910483,Y10Cd3Ni1
YInNi,mp-672299,0.0,6.320198,0.0,icsd-59455,"{39: 1, 49: 1, 28: 1}","[28, 39, 49]",281391491,Y1In1Ni1
YIn2Ni,mp-22056,0.0,7.26983422,0.0,icsd-59457,"{39: 1, 49: 2, 28: 1}","[28, 39, 49]",281391492,Y1In2Ni1
YNiSn,mp-22617,0.0,6.68832652,0.0,icsd-105378,"{39: 1, 28: 1, 50: 1}","[28, 39, 50]",281391501,Y1Ni1Sn1
YNiSn2,mp-21981,0.0,7.21166578,0.0,icsd-186293,"{39: 1, 28: 1, 50: 2}","[28, 39, 50]",281391502,Y1Ni1Sn2
YNiSb,mp-11520,0.2945000000000002,6.58644604,0.0,icsd-105331,"{39: 1, 28: 1, 51: 1}","[28, 39, 51]",281391511,Y1Ni1Sb1
YNiBi,mp-30460,0.2016,6.10725711,0.0,icsd-58826,"{39: 1, 28: 1, 83: 1}","[28, 39, 83]",281391831,Y1Ni1Bi1
Y3Ni,mp-1105633,0.0,3.72943363,0.0,icsd-658309,"{39: 3, 28: 1}","[28, 39]",281393,Y3Ni1
Y4CdNi,mp-1207794,0.013399999999999856,3.52646328,0.0,pf-25272,"{39: 4, 48: 1, 28: 1}","[28, 39, 48]",281394481,Y4Cd1Ni1
Y6NiI10,mp-1188535,0.4936999999999996,3.8536877,0.0,icsd-248711,"{39: 6, 28: 1, 53: 10}","[28, 39, 53]",2813965310,Y6Ni1I10
ZrNi,mp-556,0.0,5.74414007,0.0,icsd-105478,"{40: 1, 28: 1}","[28, 40]",281401,Zr1Ni1
ZrNiSb,mp-20697,0.0,8.19618547,0.0,icsd-408195,"{40: 1, 28: 1, 51: 1}","[28, 40, 51]",281401511,Zr1Ni1Sb1
Zr2Ni,mp-328,0.0,5.02107207,0.0,icsd-160912,"{40: 2, 28: 1}","[28, 40]",281402,Zr2Ni1
Zr2In5Ni,mp-602268,0.0,7.35055924,0.0,icsd-370041,"{40: 2, 49: 5, 28: 1}","[28, 40, 49]",281402495,Zr2In5Ni1
Zr3NiSb7,mp-22174,0.0,7.97494677,0.0,icsd-162589,"{40: 3, 28: 1, 51: 7}","[28, 40, 51]",281403517,Zr3Ni1Sb7
Zr5NiSb3,mp-1106076,0.0,7.38872065,0.0,icsd-646460,"{40: 5, 28: 1, 51: 3}","[28, 40, 51]",281405513,Zr5Ni1Sb3
Zr6NiSb2,mp-1206964,0.0,6.10486344,0.0,pf-2744,"{40: 6, 28: 1, 51: 2}","[28, 40, 51]",281406512,Zr6Ni1Sb2
Zr6NiTe2,mp-1205792,0.0,6.52739598,0.0,pf-22944,"{40: 6, 28: 1, 52: 2}","[28, 40, 52]",281406522,Zr6Ni1Te2
Zr6NiBi2,mp-1205899,0.0,5.57555085,0.0,pf-23849,"{40: 6, 28: 1, 83: 2}","[28, 40, 83]",281406832,Zr6Ni1Bi2
Zr9NiMo4,mp-1193397,0.0,5.1970252,0.0,icsd-644049,"{40: 9, 28: 1, 42: 4}","[28, 40, 42]",281409424,Zr9Ni1Mo4
NbNiTe5,mp-8999,0.0,6.28254008,0.0,icsd-73316,"{41: 1, 28: 1, 52: 5}","[28, 41, 52]",281411525,Nb1Ni1Te5
Hf9NiMo4,mp-1194426,0.0,5.53764841,0.0,icsd-638623,"{72: 9, 28: 1, 42: 4}","[28, 42, 72]",281424729,Hf9Ni1Mo4
Ni(TePd)2,mp-12463,0.0,7.55205673,0.0,icsd-416512,"{28: 1, 52: 2, 46: 2}","[28, 46, 52]",281462522,Ni1Te2Pd2
La4CdNi,mp-1211864,0.0,7.36306971,0.0,pf-34414,"{57: 4, 48: 1, 28: 1}","[28, 48, 57]",281481574,La4Cd1Ni1
Pr4CdNi,mp-1209942,0.017400000000000304,3.82403583,0.0,pf-1730,"{59: 4, 48: 1, 28: 1}","[28, 48, 59]",281481594,Pr4Cd1Ni1
Nd4CdNi,mp-1210076,0.03370000000000006,3.83384438,0.0,pf-1803,"{60: 4, 48: 1, 28: 1}","[28, 48, 60]",281481604,Nd4Cd1Ni1
Tb4CdNi,mp-1208455,0.06040000000000001,3.66354633,0.0,pf-11080,"{65: 4, 48: 1, 28: 1}","[28, 48, 65]",281481654,Tb4Cd1Ni1
Dy4CdNi,mp-1212922,0.036799999999999944,3.6313818,0.0,pf-2431,"{66: 4, 48: 1, 28: 1}","[28, 48, 66]",281481664,Dy4Cd1Ni1
Ho4CdNi,mp-1212299,0.015600000000000058,3.49135521,0.0,pf-2494,"{67: 4, 48: 1, 28: 1}","[28, 48, 67]",281481674,Ho4Cd1Ni1
Er4CdNi,mp-1212924,0.0,3.4359723,0.0,pf-2570,"{68: 4, 48: 1, 28: 1}","[28, 48, 68]",281481684,Er4Cd1Ni1
Tm4CdNi,mp-1207915,0.0,3.41033082,0.0,pf-11716,"{69: 4, 48: 1, 28: 1}","[28, 48, 69]",281481694,Tm4Cd1Ni1
Lu4CdNi,mp-1210662,0.052899999999999725,3.33475703,0.0,pf-11781,"{71: 4, 48: 1, 28: 1}","[28, 48, 71]",281481714,Lu4Cd1Ni1
InNi,mp-19876,0.0,7.72437644,0.0,icsd-59435,"{49: 1, 28: 1}","[28, 49]",281491,In1Ni1
LaInNi,mp-1078593,0.0,8.4837637,0.0,icsd-639858,"{57: 1, 49: 1, 28: 1}","[28, 49, 57]",281491571,La1In1Ni1
CeInNi,mp-21492,0.0,8.56248756,0.0,icsd-156941,"{58: 1, 49: 1, 28: 1}","[28, 49, 58]",281491581,Ce1In1Ni1
PrInNi,mp-1079387,0.0,6.24670093,0.0,icsd-167629,"{59: 1, 49: 1, 28: 1}","[28, 49, 59]",281491591,Pr1In1Ni1
NdInNi,mp-1078673,0.0,6.26638049,0.0,icsd-167631,"{60: 1, 49: 1, 28: 1}","[28, 49, 60]",281491601,Nd1In1Ni1
SmInNi,mp-1078856,0.0,6.09183397,0.0,icsd-167633,"{62: 1, 49: 1, 28: 1}","[28, 49, 62]",281491621,Sm1In1Ni1
TbInNi,mp-582293,0.0,6.38376542,0.0,icsd-640154,"{65: 1, 49: 1, 28: 1}","[28, 49, 65]",281491651,Tb1In1Ni1
DyInNi,mp-569086,0.0,6.3586722,0.0,icsd-55846,"{66: 1, 49: 1, 28: 1}","[28, 49, 66]",281491661,Dy1In1Ni1
HoInNi,mp-31426,0.0,6.32090687,0.0,icsd-639339,"{67: 1, 49: 1, 28: 1}","[28, 49, 67]",281491671,Ho1In1Ni1
ErInNi,mp-31427,0.0,6.37045277,0.0,icsd-165162,"{68: 1, 49: 1, 28: 1}","[28, 49, 68]",281491681,Er1In1Ni1
TmInNi,mp-1101052,0.0,6.28560299,0.0,icsd-640163,"{69: 1, 49: 1, 28: 1}","[28, 49, 69]",281491691,Tm1In1Ni1
LuInNi,mp-1206494,0.0,6.3570078,0.0,pf-39523,"{71: 1, 49: 1, 28: 1}","[28, 49, 71]",281491711,Lu1In1Ni1
ThInNi,mp-1078804,0.0,8.33779027,0.0,icsd-640155,"{90: 1, 49: 1, 28: 1}","[28, 49, 90]",281491901,Th1In1Ni1
EuIn2Ni,mp-19997,0.0,6.32064506,0.0,icsd-402571,"{63: 1, 49: 2, 28: 1}","[28, 49, 63]",281492631,Eu1In2Ni1
TbIn2Ni,mp-672325,0.0,7.2182739,0.0,icsd-59450,"{65: 1, 49: 2, 28: 1}","[28, 49, 65]",281492651,Tb1In2Ni1
DyIn2Ni,mp-1079916,0.0,7.22476931,0.0,icsd-629858,"{66: 1, 49: 2, 28: 1}","[28, 49, 66]",281492661,Dy1In2Ni1
LaIn4Ni,mp-20303,0.0,8.44302282,0.0,icsd-411746,"{57: 1, 49: 4, 28: 1}","[28, 49, 57]",281494571,La1In4Ni1
EuIn4Ni,mp-1103002,0.0,7.00705977,0.0,icsd-631346,"{63: 1, 49: 4, 28: 1}","[28, 49, 63]",281494631,Eu1In4Ni1
LaNiSn,mp-12613,0.0,8.79569518,0.0,icsd-157921,"{57: 1, 28: 1, 50: 1}","[28, 50, 57]",281501571,La1Ni1Sn1
CeNiSn,mp-21119,0.0,8.59133784,0.0,icsd-157922,"{58: 1, 28: 1, 50: 1}","[28, 50, 58]",281501581,Ce1Ni1Sn1
PrNiSn,mp-22164,0.0,6.45086084,0.0,icsd-646288,"{59: 1, 28: 1, 50: 1}","[28, 50, 59]",281501591,Pr1Ni1Sn1
NdNiSn,mp-20490,0.0,6.37222767,0.0,icsd-419195,"{60: 1, 28: 1, 50: 1}","[28, 50, 60]",281501601,Nd1Ni1Sn1
TbNiSn,mp-22299,0.0,6.67991399,0.0,icsd-54301,"{65: 1, 28: 1, 50: 1}","[28, 50, 65]",281501651,Tb1Ni1Sn1
DyNiSn,mp-510152,0.0,6.66545358,0.0,icsd-630037,"{66: 1, 28: 1, 50: 1}","[28, 50, 66]",281501661,Dy1Ni1Sn1
HoNiSn,mp-31176,0.0,6.79657481,0.0,icsd-57391,"{67: 1, 28: 1, 50: 1}","[28, 50, 67]",281501671,Ho1Ni1Sn1
ErNiSn,mp-622620,0.0,6.67348928,0.0,icsd-600638,"{68: 1, 28: 1, 50: 1}","[28, 50, 68]",281501681,Er1Ni1Sn1
TmNiSn,mp-1102179,0.0,6.81445094,0.0,icsd-646788,"{69: 1, 28: 1, 50: 1}","[28, 50, 69]",281501691,Tm1Ni1Sn1
LuNiSn,mp-977588,0.0,6.81398192,0.0,icsd-600641,"{71: 1, 28: 1, 50: 1}","[28, 50, 71]",281501711,Lu1Ni1Sn1
ThNiSn,mp-22786,0.26750000000000007,7.38321914,0.0,icsd-646770,"{90: 1, 28: 1, 50: 1}","[28, 50, 90]",281501901,Th1Ni1Sn1
LaNiSn2,mp-1084757,0.0,8.73040129,0.0,icsd-641595,"{57: 1, 28: 1, 50: 2}","[28, 50, 57]",281502571,La1Ni1Sn2
TbNiSn2,mp-1198844,0.0,7.14319704,0.0,icsd-646762,"{65: 1, 28: 1, 50: 2}","[28, 50, 65]",281502651,Tb1Ni1Sn2
DyNiSn2,mp-580525,0.0,7.18940306,0.0,icsd-54648,"{66: 1, 28: 1, 50: 2}","[28, 50, 66]",281502661,Dy1Ni1Sn2
HoNiSn2,mp-1199966,0.0,7.195428,0.0,icsd-639514,"{67: 1, 28: 1, 50: 2}","[28, 50, 67]",281502671,Ho1Ni1Sn2
ErNiSn2,mp-1196661,0.0,7.31406502,0.0,icsd-630883,"{68: 1, 28: 1, 50: 2}","[28, 50, 68]",281502681,Er1Ni1Sn2
TmNiSn2,mp-1197522,0.0,7.31413358,0.0,icsd-646790,"{69: 1, 28: 1, 50: 2}","[28, 50, 69]",281502691,Tm1Ni1Sn2
LuNiSn2,mp-7736,0.0,7.41575452,0.0,icsd-20790,"{71: 1, 28: 1, 50: 2}","[28, 50, 71]",281502711,Lu1Ni1Sn2
NiSn2Au,mp-1206638,0.0,7.88640649,0.0,pf-34837,"{28: 1, 50: 2, 79: 1}","[28, 50, 79]",281502791,Ni1Sn2Au1
BaNiSn3,mp-11879,0.0,6.7267524,0.0,icsd-58662,"{56: 1, 28: 1, 50: 3}","[28, 50, 56]",281503561,Ba1Ni1Sn3
NiSb,mp-810,0.0,9.5047695,0.0,icsd-105286,"{28: 1, 51: 1}","[28, 51]",281511,Ni1Sb1
LaNiSb,mp-9235,0.0,8.57473915,0.0,icsd-79979,"{57: 1, 28: 1, 51: 1}","[28, 51, 57]",281511571,La1Ni1Sb1
PrNiSb,mp-1024955,0.0,6.53534123,0.0,pf-21313,"{59: 1, 28: 1, 51: 1}","[28, 51, 59]",281511591,Pr1Ni1Sb1
NdNiSb,mp-1025087,0.0,6.5387754,0.0,pf-35883,"{60: 1, 28: 1, 51: 1}","[28, 51, 60]",281511601,Nd1Ni1Sb1
GdNiSb,mp-569197,0.0,5.62423298,0.0,icsd-636074,"{64: 1, 28: 1, 51: 1}","[28, 51, 64]",281511641,Gd1Ni1Sb1
TbNiSb,mp-3716,0.3309999999999995,6.57062342,0.0,icsd-646445,"{65: 1, 28: 1, 51: 1}","[28, 51, 65]",281511651,Tb1Ni1Sb1
DyNiSb,mp-4510,0.31230000000000047,6.56310384,0.0,icsd-103339,"{66: 1, 28: 1, 51: 1}","[28, 51, 66]",281511661,Dy1Ni1Sb1
HoNiSb,mp-4174,0.2919999999999998,6.53564665,0.0,icsd-639501,"{67: 1, 28: 1, 51: 1}","[28, 51, 67]",281511671,Ho1Ni1Sb1
ErNiSb,mp-21272,0.27390000000000025,6.64537391,0.0,icsd-53402,"{68: 1, 28: 1, 51: 1}","[28, 51, 68]",281511681,Er1Ni1Sb1
TmNiSb,mp-4025,0.2551999999999994,6.59049888,0.0,icsd-105304,"{69: 1, 28: 1, 51: 1}","[28, 51, 69]",281511691,Tm1Ni1Sb1
LuNiSb,mp-20185,0.2145999999999999,6.76159322,0.0,icsd-642458,"{71: 1, 28: 1, 51: 1}","[28, 51, 71]",281511711,Lu1Ni1Sb1
NiSb2,mp-19895,0.0,8.34130775,0.0,icsd-646409,"{28: 1, 51: 2}","[28, 51]",281512,Ni1Sb2
LaNiSb2,mp-1079572,0.0,8.31732161,0.0,icsd-658208,"{57: 1, 28: 1, 51: 2}","[28, 51, 57]",281512571,La1Ni1Sb2
CeNiSb2,mp-22539,0.0,8.53240146,0.0,icsd-658103,"{58: 1, 28: 1, 51: 2}","[28, 51, 58]",281512581,Ce1Ni1Sb2
PrNiSb2,mp-1080568,0.0,6.94373177,0.0,icsd-646263,"{59: 1, 28: 1, 51: 2}","[28, 51, 59]",281512591,Pr1Ni1Sb2
Ho5NiSb2,mp-640383,0.0,5.06439286,0.0,icsd-152688,"{67: 5, 28: 1, 51: 2}","[28, 51, 67]",281512675,Ho5Ni1Sb2
Hf6NiSb2,mp-15297,0.0,6.79038414,0.0,icsd-85966,"{72: 6, 28: 1, 51: 2}","[28, 51, 72]",281512726,Hf6Ni1Sb2
LaNiSb3,mp-569538,0.0,8.31817635,0.0,icsd-249473,"{57: 1, 28: 1, 51: 3}","[28, 51, 57]",281513571,La1Ni1Sb3
CeNiSb3,mp-568237,0.0,8.45456096,0.0,icsd-249472,"{58: 1, 28: 1, 51: 3}","[28, 51, 58]",281513581,Ce1Ni1Sb3
PrNiSb3,mp-570394,0.0,7.27922861,0.0,icsd-150404,"{59: 1, 28: 1, 51: 3}","[28, 51, 59]",281513591,Pr1Ni1Sb3
NdNiSb3,mp-571167,0.0,7.33687847,0.0,icsd-150405,"{60: 1, 28: 1, 51: 3}","[28, 51, 60]",281513601,Nd1Ni1Sb3
Hf3NiSb7,mp-1195404,0.0,8.10825812,0.0,icsd-195051,"{72: 3, 28: 1, 51: 7}","[28, 51, 72]",281517723,Hf3Ni1Sb7
NiTe,mp-10264,0.0,7.03435205,0.0,icsd-76730,"{28: 1, 52: 1}","[28, 52]",281521,Ni1Te1
NiTe2,mp-2578,0.0,7.81585839,0.0,icsd-159382,"{28: 1, 52: 2}","[28, 52]",281522,Ni1Te2
TaNiTe2,mp-19810,0.0,6.55231862,0.0,icsd-71063,"{73: 1, 28: 1, 52: 2}","[28, 52, 73]",281522731,Ta1Ni1Te2
Ta4NiTe4,mp-1197091,0.0,5.12278567,0.0,icsd-659270,"{73: 4, 28: 1, 52: 4}","[28, 52, 73]",281524734,Ta4Ni1Te4
TaNiTe5,mp-8998,0.0,6.22830881,0.0,icsd-73314,"{73: 1, 28: 1, 52: 5}","[28, 52, 73]",281525731,Ta1Ni1Te5
Er6NiI10,mp-1188388,0.6135000000000002,4.04040921,0.0,icsd-424429,"{68: 6, 28: 1, 53: 10}","[28, 53, 68]",2815310686,Er6Ni1I10
Tb7NiI12,mp-1106228,0.0,4.48944571,0.0,icsd-424445,"{65: 7, 28: 1, 53: 12}","[28, 53, 65]",2815312657,Tb7Ni1I12
NiI2,mp-27638,0.0,4.42185907,0.0,icsd-22108,"{28: 1, 53: 2}","[28, 53]",281532,Ni1I2
Pr4NiI5,mp-618999,0.0,4.46353486,0.0,icsd-84700,"{59: 4, 28: 1, 53: 5}","[28, 53, 59]",281535594,Pr4Ni1I5
LaNi,mp-1064719,0.0,8.86719878,0.0,icsd-641499,"{57: 1, 28: 1}","[28, 57]",281571,La1Ni1
CeNi,mp-21188,0.0,8.05305856,0.0,icsd-154440,"{58: 1, 28: 1}","[28, 58]",281581,Ce1Ni1
Ce5NiPb3,mp-640447,0.0,7.51297893,0.0,icsd-152601,"{58: 5, 28: 1, 82: 3}","[28, 58, 82]",281585823,Ce5Ni1Pb3
PrNi,mp-11799,0.0,4.8591185,0.0,icsd-99823,"{59: 1, 28: 1}","[28, 59]",281591,Pr1Ni1
PrNiBi,mp-1206667,0.3337999999999992,5.78049177,0.0,pf-37184,"{59: 1, 28: 1, 83: 1}","[28, 59, 83]",281591831,Pr1Ni1Bi1
Pr3Ni,mp-1106122,0.0,4.08915163,0.0,icsd-646228,"{59: 3, 28: 1}","[28, 59]",281593,Pr3Ni1
NdNi,mp-999339,0.0,5.08380412,0.0,icsd-645610,"{60: 1, 28: 1}","[28, 60]",281601,Nd1Ni1
NdNiBi,mp-1206719,0.5118999999999998,5.95675443,0.0,pf-14769,"{60: 1, 28: 1, 83: 1}","[28, 60, 83]",281601831,Nd1Ni1Bi1
Nd3Ni,mp-1188200,0.0,3.84677816,0.0,icsd-645587,"{60: 3, 28: 1}","[28, 60]",281603,Nd3Ni1
SmNi,mp-999145,0.0,4.51065513,0.0,icsd-646694,"{62: 1, 28: 1}","[28, 62]",281621,Sm1Ni1
Sm3Ni,mp-1105945,0.0,3.78800493,0.0,icsd-646695,"{62: 3, 28: 1}","[28, 62]",281623,Sm3Ni1
Zr6Ni16Ge7,mp-672651,0.0,7.48845914,0.0,icsd-109127,"{40: 6, 28: 16, 32: 7}","[28, 32, 40]",2816327406,Zr6Ni16Ge7
Hf6Ni16Ge7,mp-580092,0.0,7.87384466,0.0,icsd-109125,"{72: 6, 28: 16, 32: 7}","[28, 32, 72]",2816327726,Hf6Ni16Ge7
Y5Zr3(Ni4As3)4,mp-1203300,0.0,6.98356499,0.0,icsd-611103,"{39: 5, 40: 3, 28: 16, 33: 12}","[28, 33, 39, 40]",28163312395403,Y5Zr3Ni16As12
Pr5Zr3(Ni4As3)4,mp-1196188,0.0,7.08310334,0.0,icsd-611052,"{59: 5, 40: 3, 28: 16, 33: 12}","[28, 33, 40, 59]",28163312403595,Pr5Zr3Ni16As12
Nd5Zr3(Ni4As3)4,mp-1202368,0.0,7.00681201,0.0,icsd-611006,"{60: 5, 40: 3, 28: 16, 33: 12}","[28, 33, 40, 60]",28163312403605,Nd5Zr3Ni16As12
Tb5Zr3(Ni4As3)4,mp-1201911,0.0,6.97178959,0.0,icsd-611085,"{65: 5, 40: 3, 28: 16, 33: 12}","[28, 33, 40, 65]",28163312403655,Tb5Zr3Ni16As12
Dy5Zr3(Ni4As3)4,mp-1198172,0.0,7.2174591,0.0,icsd-610381,"{66: 5, 40: 3, 28: 16, 33: 12}","[28, 33, 40, 66]",28163312403665,Dy5Zr3Ni16As12
Ho5Zr3(Ni4As3)4,mp-1205128,0.0,7.06112117,0.0,icsd-610677,"{67: 5, 40: 3, 28: 16, 33: 12}","[28, 33, 40, 67]",28163312403675,Ho5Zr3Ni16As12
Er5Zr3(Ni4As3)4,mp-569804,0.0,7.11289445,0.0,icsd-610394,"{68: 5, 40: 3, 28: 16, 33: 12}","[28, 33, 40, 68]",28163312403685,Er5Zr3Ni16As12
Tm5Zr3(Ni4As3)4,mp-1195749,0.0,7.13262322,0.0,icsd-611091,"{69: 5, 40: 3, 28: 16, 33: 12}","[28, 33, 40, 69]",28163312403695,Tm5Zr3Ni16As12
Lu5Zr3(Ni4As3)4,mp-1196994,0.0,7.08538775,0.0,icsd-610821,"{71: 5, 40: 3, 28: 16, 33: 12}","[28, 33, 40, 71]",28163312403715,Lu5Zr3Ni16As12
GdNi,mp-542632,0.0,4.41516007,0.0,icsd-636042,"{64: 1, 28: 1}","[28, 64]",281641,Gd1Ni1
GdNiPb,mp-1212834,0.0,6.10469884,0.0,pf-32729,"{64: 1, 28: 1, 82: 1}","[28, 64, 82]",281641821,Gd1Ni1Pb1
GdNiBi,mp-567422,0.0,5.06653996,0.0,icsd-58785,"{64: 1, 28: 1, 83: 1}","[28, 64, 83]",281641831,Gd1Ni1Bi1
TbNi,mp-672240,0.0,4.85488819,0.0,icsd-105395,"{65: 1, 28: 1}","[28, 65]",281651,Tb1Ni1
TbNiBi,mp-1206686,0.2301000000000002,6.06942499,0.0,pf-35808,"{65: 1, 28: 1, 83: 1}","[28, 65, 83]",281651831,Tb1Ni1Bi1
Tb3Ni,mp-623751,0.0,3.90428188,0.0,icsd-105396,"{65: 3, 28: 1}","[28, 65]",281653,Tb3Ni1
Tb5NiPb3,mp-640444,0.0,5.22901744,0.0,icsd-152603,"{65: 5, 28: 1, 82: 3}","[28, 65, 82]",281655823,Tb5Ni1Pb3
La7Ni16,mp-582055,0.0,8.87572979,0.0,icsd-104682,"{57: 7, 28: 16}","[28, 57]",2816577,La7Ni16
DyNi,mp-2738,0.0,4.83623982,0.0,icsd-630008,"{66: 1, 28: 1}","[28, 66]",281661,Dy1Ni1
DyNiBi,mp-30452,0.20840000000000014,6.06016806,0.0,icsd-58779,"{66: 1, 28: 1, 83: 1}","[28, 66, 83]",281661831,Dy1Ni1Bi1
Dy5NiPb3,mp-640372,0.0,5.19967051,0.0,icsd-152604,"{66: 5, 28: 1, 82: 3}","[28, 66, 82]",281665823,Dy5Ni1Pb3
HoNi,mp-11871,0.0,4.74656506,0.0,icsd-639450,"{67: 1, 28: 1}","[28, 67]",281671,Ho1Ni1
HoNiBi,mp-1018139,0.1941000000000006,6.09030628,0.0,icsd-616692,"{67: 1, 28: 1, 83: 1}","[28, 67, 83]",281671831,Ho1Ni1Bi1
Ho3Ni,mp-1189188,0.0,3.6527351,0.0,icsd-639451,"{67: 3, 28: 1}","[28, 67]",281673,Ho3Ni1
Ho5NiBi2,mp-1212503,0.0,4.72421082,0.0,pf-29358,"{67: 5, 28: 1, 83: 2}","[28, 67, 83]",281675832,Ho5Ni1Bi2
ErNi,mp-567314,0.0,4.81056313,0.0,icsd-630814,"{68: 1, 28: 1}","[28, 68]",281681,Er1Ni1
ErNiBi,mp-1206712,0.16999999999999993,6.05514116,0.0,pf-14835,"{68: 1, 28: 1, 83: 1}","[28, 68, 83]",281681831,Er1Ni1Bi1
Er3Ni,mp-1105907,0.0,3.65427075,0.0,icsd-659049,"{68: 3, 28: 1}","[28, 68]",281683,Er3Ni1
Er5NiPb3,mp-570864,0.0,5.24159002,0.0,icsd-152606,"{68: 5, 28: 1, 82: 3}","[28, 68, 82]",281685823,Er5Ni1Pb3
TmNi,mp-11525,0.0,4.70491014,0.0,icsd-646985,"{69: 1, 28: 1}","[28, 69]",281691,Tm1Ni1
TmNiBi,mp-568269,0.1490999999999998,6.11758858,0.0,icsd-58825,"{69: 1, 28: 1, 83: 1}","[28, 69, 83]",281691831,Tm1Ni1Bi1
U11Ni16,mp-567950,0.0,11.68280112,0.0,icsd-54642,"{92: 11, 28: 16}","[28, 92]",28169211,U11Ni16
Tm3Ni,mp-1208031,0.0,3.56170352,0.0,icsd-646986,"{69: 3, 28: 1}","[28, 69]",281693,Tm3Ni1
LuNi,mp-1078899,0.0,4.68115845,0.0,icsd-642448,"{71: 1, 28: 1}","[28, 71]",281711,Lu1Ni1
LuNiPb,mp-13074,0.0,6.98152893,0.0,icsd-160550,"{71: 1, 28: 1, 82: 1}","[28, 71, 82]",281711821,Lu1Ni1Pb1
LuNiBi,mp-30457,0.012699999999999712,6.14925575,0.0,icsd-58802,"{71: 1, 28: 1, 83: 1}","[28, 71, 83]",281711831,Lu1Ni1Bi1
Lu5NiPb3,mp-568942,0.0,5.30087151,0.0,icsd-152608,"{71: 5, 28: 1, 82: 3}","[28, 71, 82]",281715823,Lu5Ni1Pb3
HfNi,mp-1018056,0.0,6.23989528,0.0,icsd-638703,"{72: 1, 28: 1}","[28, 72]",281721,Hf1Ni1
Hf6NiBi2,mp-1205957,0.0,6.20172382,0.0,pf-34344,"{72: 6, 28: 1, 83: 2}","[28, 72, 83]",281726832,Hf6Ni1Bi2
Hf9NiW4,mp-1192493,0.0,5.115638,0.0,icsd-638734,"{72: 9, 28: 1, 74: 4}","[28, 72, 74]",281729744,Hf9Ni1W4
Hf9Re4Ni,mp-1193183,0.0,5.46193105,0.0,icsd-638713,"{72: 9, 75: 4, 28: 1}","[28, 72, 75]",281729754,Hf9Re4Ni1
Ta2Ni,mp-1867,0.0,6.40373286,0.0,icsd-105387,"{73: 2, 28: 1}","[28, 73]",281732,Ta2Ni1
NiPt,mp-945,0.0,7.56642852,0.0,icsd-646300,"{28: 1, 78: 1}","[28, 78]",281781,Ni1Pt1
NiBi,mp-999318,0.0,7.6428208,0.0,icsd-616868,"{28: 1, 83: 1}","[28, 83]",281831,Ni1Bi1
NiBi3,mp-23179,0.0,6.68867037,0.0,icsd-180771,"{28: 1, 83: 3}","[28, 83]",281833,Ni1Bi3
ThNi,mp-623836,0.0,7.82087147,0.0,icsd-646930,"{90: 1, 28: 1}","[28, 90]",281901,Th1Ni1
Pr5Ni19,mp-1199510,0.0,6.35349499,0.0,icsd-182519,"{59: 5, 28: 19}","[28, 59]",2819595,Pr5Ni19
Nd5Ni19,mp-1192051,0.0,6.40485223,0.0,icsd-182523,"{60: 5, 28: 19}","[28, 60]",2819605,Nd5Ni19
Ce6Ni20As13,mp-1214373,0.0,8.26199422,0.0,pf-27452,"{58: 6, 28: 20, 33: 13}","[28, 33, 58]",28203313586,Ce6Ni20As13
Sm6Ni20As13,mp-1209077,0.0,6.90372622,0.0,pf-13684,"{62: 6, 28: 20, 33: 13}","[28, 33, 62]",28203313626,Sm6Ni20As13
Er6Ni20As13,mp-1213480,0.0,7.2487054,0.0,pf-14418,"{68: 6, 28: 20, 33: 13}","[28, 33, 68]",28203313686,Er6Ni20As13