formula,material_id,band_gap,efermi,energy_above_hull,database_IDs,comp_atoms,sorted_keys_comp_atoms,comp_number,new_formula
NiH10(SeO5)2,mp-1181715,3.8277,-0.76832714,0.0,icsd-79092,"{28: 1, 1: 10, 34: 2, 8: 10}","[1, 8, 28, 34]",110810281342,Ni1H10Se2O10
NaAl3NiCl12,mp-568785,1.2562,0.47908218,0.0,icsd-417871,"{11: 1, 13: 3, 28: 1, 17: 12}","[11, 13, 17, 28]",1111331712281,Na1Al3Ni1Cl12
NiH12(NO6)2,mp-1194565,3.1523,-1.08743213,0.0,icsd-429170,"{28: 1, 1: 12, 7: 2, 8: 12}","[1, 7, 8, 28]",11272812281,Ni1H12N2O12
NiH,mp-24719,0.0,7.87353784,0.0,icsd-56077,"{28: 1, 1: 1}","[1, 28]",11281,Ni1H1
NiH12(ClO6)2,mp-1180537,5.3144,3.75331698,0.0,icsd-67106,"{28: 1, 1: 12, 17: 2, 8: 12}","[1, 8, 17, 28]",112812172281,Ni1H12Cl2O12
K2NiH12(SO7)2,mp-24133,4.5955,3.98226843,0.0,icsd-4308,"{19: 2, 28: 1, 1: 12, 16: 2, 8: 14}","[1, 8, 16, 19, 28]",112814162192281,K2Ni1H12S2O14
Rb2NiH12(SO7)2,mp-24688,4.6009,3.94880012,0.0,icsd-409495,"{37: 2, 28: 1, 1: 12, 16: 2, 8: 14}","[1, 8, 16, 28, 37]",112814162281372,Rb2Ni1H12S2O14
Cs2NiH12(SO7)2,mp-542420,1.1409,2.12098417,0.0,icsd-51647,"{55: 2, 28: 1, 1: 12, 16: 2, 8: 14}","[1, 8, 16, 28, 55]",112814162281552,Cs2Ni1H12S2O14
Tl2NiH12(SO7)2,mp-1199808,4.653,-0.03060651,0.0,icsd-710006,"{81: 2, 28: 1, 1: 12, 16: 2, 8: 14}","[1, 8, 16, 28, 81]",112814162281812,Tl2Ni1H12S2O14
K2NiH12(SeO7)2,mp-1202063,3.6116,-1.09879751,0.0,icsd-710000,"{19: 2, 28: 1, 1: 12, 34: 2, 8: 14}","[1, 8, 19, 28, 34]",112814192281342,K2Ni1H12Se2O14
Rb2NiH12(SeO7)2,mp-24755,3.4289,2.42516085,0.0,icsd-409591,"{37: 2, 28: 1, 1: 12, 34: 2, 8: 14}","[1, 8, 28, 34, 37]",112814281342372,Rb2Ni1H12Se2O14
Tl2NiH12(SeO7)2,mp-1198362,3.8339,-0.30200717,0.0,icsd-710012,"{81: 2, 28: 1, 1: 12, 34: 2, 8: 14}","[1, 8, 28, 34, 81]",112814281342812,Tl2Ni1H12Se2O14
NiH12(BrO7)2,mp-690647,2.6391999999999998,-1.16915438,0.0,icsd-65047,"{28: 1, 1: 12, 35: 2, 8: 14}","[1, 8, 28, 35]",112814281352,Ni1H12Br2O14
LaNiSnH,mp-510577,0.0,8.69408074,0.0,icsd-157925,"{57: 1, 28: 1, 50: 1, 1: 1}","[1, 28, 50, 57]",11281501571,La1Ni1Sn1H1
CeNiSnH,mp-643790,0.0,8.5909111,0.0,icsd-157926,"{58: 1, 28: 1, 50: 1, 1: 1}","[1, 28, 50, 58]",11281501581,Ce1Ni1Sn1H1
PrNiSnH,mp-510579,0.0,6.64229148,0.0,icsd-157927,"{59: 1, 28: 1, 50: 1, 1: 1}","[1, 28, 50, 59]",11281501591,Pr1Ni1Sn1H1
NdNiSnH,mp-510580,0.0,6.67783907,0.0,icsd-157928,"{60: 1, 28: 1, 50: 1, 1: 1}","[1, 28, 50, 60]",11281501601,Nd1Ni1Sn1H1
NiH12(ClO3)2,mp-24231,1.4125999999999999,-0.01687203,0.0,icsd-64878,"{28: 1, 1: 12, 17: 2, 8: 6}","[1, 8, 17, 28]",11286172281,Ni1H12Cl2O6
K2Zr2NiH12(OF2)6,mp-1199679,5.1419,3.16395831,0.0,icsd-261154,"{19: 2, 40: 2, 28: 1, 1: 12, 8: 6, 9: 12}","[1, 8, 9, 19, 28, 40]",11286912192281402,K2Zr2Ni1H12O6F12
NiSnH12(OF)6,mp-24577,3.2497,-1.89515465,0.0,icsd-75985,"{28: 1, 50: 1, 1: 12, 8: 6, 9: 6}","[1, 8, 9, 28, 50]",1128696281501,Ni1Sn1H12O6F6
NiSn2H12(OF)6,mp-735541,4.4047,-0.8596835,0.0,icsd-79718,"{28: 1, 50: 2, 1: 12, 8: 6, 9: 6}","[1, 8, 9, 28, 50]",1128696281502,Ni1Sn2H12O6F6
NiSb2H12(O3F4)2,mp-1199397,5.0235,4.05102426,0.0,icsd-20924,"{28: 1, 51: 2, 1: 12, 8: 6, 9: 8}","[1, 8, 9, 28, 51]",1128698281512,Ni1Sb2H12O6F8
VNiH14(O2F)4,mp-1199615,2.6441,1.50968954,0.0,icsd-262614,"{23: 1, 28: 1, 1: 14, 8: 8, 9: 4}","[1, 8, 9, 23, 28]",1148894231281,V1Ni1H14O8F4
UNiH14O9F4,mp-604490,2.3034,-1.3750826,0.0,icsd-20885,"{92: 1, 28: 1, 1: 14, 8: 9, 9: 4}","[1, 8, 9, 28, 92]",1148994281921,U1Ni1H14O9F4
NiPH16NO10,mp-505449,4.9634,4.18915736,0.0,icsd-403058,"{28: 1, 15: 1, 1: 16, 7: 1, 8: 10}","[1, 7, 8, 15, 28]",11671810151281,Ni1P1H16N1O10
NiP4H16(NO8)2,mp-758839,4.668900000000001,-0.21913226,0.0,icsd-170046,"{28: 1, 15: 4, 1: 16, 7: 2, 8: 16}","[1, 7, 8, 15, 28]",11672816154281,Ni1P4H16N2O16
CaNiAsHO5,mp-505457,2.4759,2.87292743,0.0,icsd-202422,"{20: 1, 28: 1, 33: 1, 1: 1, 8: 5}","[1, 8, 20, 28, 33]",1185201281331,Ca1Ni1As1H1O5
Be2NiH20N2(O3F4)2,mp-1198491,4.9841,-1.81906086,0.0,icsd-23271,"{4: 2, 28: 1, 1: 20, 7: 2, 8: 6, 9: 8}","[1, 4, 7, 8, 9, 28]",12042728698281,Be2Ni1H20N2O6F8
NiH20S2(NO7)2,mp-23912,4.6985,4.09124901,0.0,icsd-40983,"{28: 1, 1: 20, 16: 2, 7: 2, 8: 14}","[1, 7, 8, 16, 28]",12072814162281,Ni1H20S2N2O14
MgNi2P,mp-17942,0.0,7.91382822,0.0,icsd-74784,"{12: 1, 28: 2, 15: 1}","[12, 15, 28]",121151282,Mg1Ni2P1
MgNiGe,mp-1102387,0.0,5.61274308,0.0,icsd-237302,"{12: 1, 28: 1, 32: 1}","[12, 28, 32]",121281321,Mg1Ni1Ge1
Y4MgNi,mp-1207825,0.030100000000000016,3.56324487,0.0,pf-19966,"{39: 4, 12: 1, 28: 1}","[12, 28, 39]",121281394,Y4Mg1Ni1
MgNiSb,mp-15778,0.0,7.3575539,0.0,icsd-44925,"{12: 1, 28: 1, 51: 1}","[12, 28, 51]",121281511,Mg1Ni1Sb1
Tb4MgNi,mp-1208458,0.012199999999999989,3.67593613,0.0,pf-12149,"{65: 4, 12: 1, 28: 1}","[12, 28, 65]",121281654,Tb4Mg1Ni1
Dy4MgNi,mp-1212902,0.012600000000000389,3.54836958,0.0,pf-22690,"{66: 4, 12: 1, 28: 1}","[12, 28, 66]",121281664,Dy4Mg1Ni1
Ho4MgNi,mp-1212308,0.03639999999999999,3.4596147,0.0,pf-18608,"{67: 4, 12: 1, 28: 1}","[12, 28, 67]",121281674,Ho4Mg1Ni1
Er4MgNi,mp-1212947,0.022299999999999986,3.3664215,0.0,pf-29131,"{68: 4, 12: 1, 28: 1}","[12, 28, 68]",121281684,Er4Mg1Ni1
Tm4MgNi,mp-1208029,0.0,3.46214037,0.0,pf-39580,"{69: 4, 12: 1, 28: 1}","[12, 28, 69]",121281694,Tm4Mg1Ni1
Lu4MgNi,mp-1211003,0.015800000000000036,3.39060407,0.0,pf-8169,"{71: 4, 12: 1, 28: 1}","[12, 28, 71]",121281714,Lu4Mg1Ni1
MgNiBi,mp-29733,0.0,5.74666073,0.0,icsd-76253,"{12: 1, 28: 1, 83: 1}","[12, 28, 83]",121281831,Mg1Ni1Bi1
MgNi2,mp-2675,0.0,6.40921989,0.0,icsd-193568,"{12: 1, 28: 2}","[12, 28]",121282,Mg1Ni2
MgInNi2,mp-19929,0.0,7.24122626,0.0,icsd-51982,"{12: 1, 49: 1, 28: 2}","[12, 28, 49]",121282491,Mg1In1Ni2
MgNi2Sn,mp-30774,0.0,8.39228165,0.0,icsd-104842,"{12: 1, 28: 2, 50: 1}","[12, 28, 50]",121282501,Mg1Ni2Sn1
La2MgNi2,mp-4952,0.0,7.26006018,0.0,icsd-107327,"{57: 2, 12: 1, 28: 2}","[12, 28, 57]",121282572,La2Mg1Ni2
Ce2MgNi2,mp-19910,0.0,7.09370423,0.0,icsd-411012,"{58: 2, 12: 1, 28: 2}","[12, 28, 58]",121282582,Ce2Mg1Ni2
Pr2MgNi2,mp-2926,0.0,4.4792618,0.0,icsd-107328,"{59: 2, 12: 1, 28: 2}","[12, 28, 59]",121282592,Pr2Mg1Ni2
Nd2MgNi2,mp-5925,0.0,4.41051881,0.0,icsd-411079,"{60: 2, 12: 1, 28: 2}","[12, 28, 60]",121282602,Nd2Mg1Ni2
Gd2MgNi2,mp-1205657,0.0,4.31214809,0.0,pf-21077,"{64: 2, 12: 1, 28: 2}","[12, 28, 64]",121282642,Gd2Mg1Ni2
Tb2MgNi2,mp-1206554,0.0,4.66921648,0.0,pf-37936,"{65: 2, 12: 1, 28: 2}","[12, 28, 65]",121282652,Tb2Mg1Ni2
Dy2MgNi2,mp-1206447,0.0,4.55096074,0.0,pf-15589,"{66: 2, 12: 1, 28: 2}","[12, 28, 66]",121282662,Dy2Mg1Ni2
Ho2MgNi2,mp-1205562,0.0,4.44558574,0.0,pf-26158,"{67: 2, 12: 1, 28: 2}","[12, 28, 67]",121282672,Ho2Mg1Ni2
Er2MgNi2,mp-1205516,0.0,4.46905657,0.0,pf-36652,"{68: 2, 12: 1, 28: 2}","[12, 28, 68]",121282682,Er2Mg1Ni2
Tm2MgNi2,mp-1206769,0.0,4.45802004,0.0,pf-5198,"{69: 2, 12: 1, 28: 2}","[12, 28, 69]",121282692,Tm2Mg1Ni2
YMgNi4,mp-3433,0.0,6.01435803,0.0,icsd-183095,"{39: 1, 12: 1, 28: 4}","[12, 28, 39]",121284391,Y1Mg1Ni4
LaMgNi4,mp-3289,0.0,7.65360626,0.0,icsd-184164,"{57: 1, 12: 1, 28: 4}","[12, 28, 57]",121284571,La1Mg1Ni4
CeMgNi4,mp-13435,0.0,7.77475758,0.0,icsd-184165,"{58: 1, 12: 1, 28: 4}","[12, 28, 58]",121284581,Ce1Mg1Ni4
PrMgNi4,mp-13436,0.0,5.67575856,0.0,icsd-237318,"{59: 1, 12: 1, 28: 4}","[12, 28, 59]",121284591,Pr1Mg1Ni4
NdMgNi4,mp-11194,0.0,5.82922867,0.0,icsd-194973,"{60: 1, 12: 1, 28: 4}","[12, 28, 60]",121284601,Nd1Mg1Ni4
GdMgNi4,mp-977381,0.0,5.95301549,0.0,icsd-184167,"{64: 1, 12: 1, 28: 4}","[12, 28, 64]",121284641,Gd1Mg1Ni4
Mg2SiNi3,mp-15779,0.0,7.06593991,0.0,icsd-44926,"{12: 2, 14: 1, 28: 3}","[12, 14, 28]",122141283,Mg2Si1Ni3
Mg2Ni3P,mp-8969,0.0,7.62083967,0.0,icsd-72409,"{12: 2, 28: 3, 15: 1}","[12, 15, 28]",122151283,Mg2Ni3P1
Mg2Ni,mp-2137,0.0,4.66852209,0.0,icsd-56068,"{12: 2, 28: 1}","[12, 28]",122281,Mg2Ni1
LaMg2Ni,mp-11200,0.0,5.94124616,0.0,icsd-96152,"{57: 1, 12: 2, 28: 1}","[12, 28, 57]",122281571,La1Mg2Ni1
CeMg2Ni9,mp-13505,0.0,7.1897912,0.0,icsd-55615,"{58: 1, 12: 2, 28: 9}","[12, 28, 58]",122289581,Ce1Mg2Ni9
LaNiSnH2,mp-24805,0.0,8.19603638,0.0,icsd-157929,"{57: 1, 28: 1, 50: 1, 1: 2}","[1, 28, 50, 57]",12281501571,La1Ni1Sn1H2
CeNiSnH2,mp-542856,0.0,8.0789775,0.0,icsd-157930,"{58: 1, 28: 1, 50: 1, 1: 2}","[1, 28, 50, 58]",12281501581,Ce1Ni1Sn1H2
NdNiSnH2,mp-510582,0.0,6.37406097,0.0,icsd-157932,"{60: 1, 28: 1, 50: 1, 1: 2}","[1, 28, 50, 60]",12281501601,Nd1Ni1Sn1H2
Mg3(Ni10P3)2,mp-14842,0.0,8.36549017,0.0,icsd-72350,"{12: 3, 28: 20, 15: 6}","[12, 15, 28]",1231562820,Mg3Ni20P6
Mg3TiNi2,mp-1191806,0.0,5.09975031,0.0,icsd-187996,"{12: 3, 22: 1, 28: 2}","[12, 22, 28]",123221282,Mg3Ti1Ni2
Tb2Mg3Ni2,mp-570272,0.0,3.93541508,0.0,icsd-240761,"{65: 2, 12: 3, 28: 2}","[12, 28, 65]",123282652,Tb2Mg3Ni2
La23Mg4Ni7,mp-581781,0.0,7.42138396,0.0,icsd-419245,"{57: 23, 12: 4, 28: 7}","[12, 28, 57]",1242875723,La23Mg4Ni7
Pr23Mg4Ni7,mp-569425,0.0,3.88965152,0.0,icsd-419246,"{59: 23, 12: 4, 28: 7}","[12, 28, 59]",1242875923,Pr23Mg4Ni7
Nd23Mg4Ni7,mp-1211441,0.0,3.688409,0.0,pf-10192,"{60: 23, 12: 4, 28: 7}","[12, 28, 60]",1242876023,Nd23Mg4Ni7
U2NiP2(HO)24,mp-1198611,2.4318,1.44360421,0.0,icsd-171964,"{92: 2, 28: 1, 15: 2, 1: 24, 8: 24}","[1, 8, 15, 28, 92]",124824152281922,U2Ni1P2H24O24
Mg5Ni9P7,mp-1210655,0.0,8.32051682,0.0,pf-13097,"{12: 5, 28: 9, 15: 7}","[12, 15, 28]",125157289,Mg5Ni9P7
Mg6Si7Ni16,mp-570457,0.0,8.05093777,0.0,icsd-159261,"{12: 6, 14: 7, 28: 16}","[12, 14, 28]",1261472816,Mg6Si7Ni16
Mg6Ni16Ge7,mp-21725,0.0,6.54296635,0.0,icsd-53680,"{12: 6, 28: 16, 32: 7}","[12, 28, 32]",1262816327,Mg6Ni16Ge7
Mg6Ni16As7,mp-21587,0.0,7.71928333,0.0,icsd-78834,"{12: 6, 28: 16, 33: 7}","[12, 28, 33]",1262816337,Mg6Ni16As7
BaV2Ni3(HO5)2,mp-1205427,2.5875999999999997,1.93646716,0.0,icsd-424330,"{56: 1, 23: 2, 28: 3, 1: 2, 8: 10}","[1, 8, 23, 28, 56]",12810232283561,Ba1V2Ni3H2O10
Ni3H2Se3O10,mp-24540,2.6843000000000004,1.7925722,0.0,icsd-66718,"{28: 3, 1: 2, 34: 3, 8: 10}","[1, 8, 28, 34]",12810283343,Ni3H2Se3O10
Ni3AgP3(HO6)2,mp-24731,2.7641,6.24072943,0.0,icsd-280922,"{28: 3, 47: 1, 15: 3, 1: 2, 8: 12}","[1, 8, 15, 28, 47]",12812153283471,Ni3Ag1P3H2O12
Ni5H2Se6(ClO4)4,mp-1195170,3.0001,3.67578127,0.0,icsd-239334,"{28: 5, 1: 2, 34: 6, 17: 4, 8: 16}","[1, 8, 17, 28, 34]",12816174285346,Ni5H2Se6Cl4O16
KNiPH2O5,mp-644129,4.0043999999999995,1.34008003,0.0,icsd-81290,"{19: 1, 28: 1, 15: 1, 1: 2, 8: 5}","[1, 8, 15, 19, 28]",1285151191281,K1Ni1P1H2O5
NiH2SO5,mp-643570,0.0,3.48141793,0.0,icsd-71347,"{28: 1, 1: 2, 16: 1, 8: 5}","[1, 8, 16, 28]",1285161281,Ni1H2S1O5
NiH2SeO5,mp-23968,2.6943,0.66131148,0.0,icsd-66748,"{28: 1, 1: 2, 34: 1, 8: 5}","[1, 8, 28, 34]",1285281341,Ni1H2Se1O5
NiP2H2O7,mp-1202294,4.8327,0.42708085,0.0,icsd-249422,"{28: 1, 15: 2, 1: 2, 8: 7}","[1, 8, 15, 28]",1287152281,Ni1P2H2O7
ScAlNi2,mp-10898,0.0,7.07468705,0.0,icsd-58050,"{21: 1, 13: 1, 28: 2}","[13, 21, 28]",131211282,Sc1Al1Ni2
TiAlNi2,mp-7187,0.0,8.02161151,0.0,icsd-165902,"{22: 1, 13: 1, 28: 2}","[13, 22, 28]",131221282,Ti1Al1Ni2
MnAlNi2,mp-4922,0.0,7.57571564,0.0,icsd-57976,"{25: 1, 13: 1, 28: 2}","[13, 25, 28]",131251282,Mn1Al1Ni2
AlNi,mp-1487,0.0,10.47765691,0.0,icsd-151386,"{13: 1, 28: 1}","[13, 28]",131281,Al1Ni1
YAlNi,mp-13095,0.0,5.76641317,0.0,icsd-608947,"{39: 1, 13: 1, 28: 1}","[13, 28, 39]",131281391,Y1Al1Ni1
ZrAlNi,mp-5723,0.0,6.56136917,0.0,icsd-106999,"{40: 1, 13: 1, 28: 1}","[13, 28, 40]",131281401,Zr1Al1Ni1
LaAlNi,mp-1211364,0.0,8.25769806,0.0,pf-21675,"{57: 1, 13: 1, 28: 1}","[13, 28, 57]",131281571,La1Al1Ni1
CeAlNi,mp-11351,0.0,8.21983911,0.0,icsd-606495,"{58: 1, 13: 1, 28: 1}","[13, 28, 58]",131281581,Ce1Al1Ni1
PrAlNi,mp-1079699,0.0,5.77126451,0.0,icsd-608831,"{59: 1, 13: 1, 28: 1}","[13, 28, 59]",131281591,Pr1Al1Ni1
NdAlNi,mp-1078757,0.0,5.67141922,0.0,icsd-608770,"{60: 1, 13: 1, 28: 1}","[13, 28, 60]",131281601,Nd1Al1Ni1
GdAlNi,mp-1101090,0.0,5.51335405,0.0,icsd-107418,"{64: 1, 13: 1, 28: 1}","[13, 28, 64]",131281641,Gd1Al1Ni1
TbAlNi,mp-11538,0.0,5.71288795,0.0,icsd-105534,"{65: 1, 13: 1, 28: 1}","[13, 28, 65]",131281651,Tb1Al1Ni1
DyAlNi,mp-3053,0.0,5.75855807,0.0,icsd-107417,"{66: 1, 13: 1, 28: 1}","[13, 28, 66]",131281661,Dy1Al1Ni1
HoAlNi,mp-2909,0.0,5.72146062,0.0,icsd-107223,"{67: 1, 13: 1, 28: 1}","[13, 28, 67]",131281671,Ho1Al1Ni1
ErAlNi,mp-1078826,0.0,5.69214552,0.0,icsd-607431,"{68: 1, 13: 1, 28: 1}","[13, 28, 68]",131281681,Er1Al1Ni1
TmAlNi,mp-1087523,0.0,5.70540468,0.0,icsd-608913,"{69: 1, 13: 1, 28: 1}","[13, 28, 69]",131281691,Tm1Al1Ni1
LuAlNi,mp-1079819,0.0,5.67247658,0.0,icsd-608393,"{71: 1, 13: 1, 28: 1}","[13, 28, 71]",131281711,Lu1Al1Ni1
HfAlNi,mp-1078767,0.0,7.04378365,0.0,icsd-608118,"{72: 1, 13: 1, 28: 1}","[13, 28, 72]",131281721,Hf1Al1Ni1
ThAlNi,mp-1078581,0.0,7.92370863,0.0,icsd-608053,"{90: 1, 13: 1, 28: 1}","[13, 28, 90]",131281901,Th1Al1Ni1
ZrAlNi2,mp-3944,0.0,6.97627983,0.0,icsd-608975,"{40: 1, 13: 1, 28: 2}","[13, 28, 40]",131282401,Zr1Al1Ni2
Nd2AlNi2,mp-1069330,0.0,5.33049857,0.0,icsd-608769,"{60: 2, 13: 1, 28: 2}","[13, 28, 60]",131282602,Nd2Al1Ni2
Sm2AlNi2,mp-1206462,0.0,5.39197102,0.0,pf-22892,"{62: 2, 13: 1, 28: 2}","[13, 28, 62]",131282622,Sm2Al1Ni2
Gd2AlNi2,mp-1071506,0.0,5.247006,0.0,icsd-607901,"{64: 2, 13: 1, 28: 2}","[13, 28, 64]",131282642,Gd2Al1Ni2
Tb2AlNi2,mp-1069297,0.0,5.39320588,0.0,icsd-608886,"{65: 2, 13: 1, 28: 2}","[13, 28, 65]",131282652,Tb2Al1Ni2
Er2AlNi2,mp-1068244,0.0,5.43449777,0.0,icsd-607424,"{68: 2, 13: 1, 28: 2}","[13, 28, 68]",131282682,Er2Al1Ni2
Tm2AlNi2,mp-1069611,0.0,5.33825723,0.0,icsd-608919,"{69: 2, 13: 1, 28: 2}","[13, 28, 69]",131282692,Tm2Al1Ni2
Lu2AlNi2,mp-1070507,0.0,5.31586317,0.0,icsd-608388,"{71: 2, 13: 1, 28: 2}","[13, 28, 71]",131282712,Lu2Al1Ni2
HfAlNi2,mp-5748,0.0,7.31555534,0.0,icsd-608123,"{72: 1, 13: 1, 28: 2}","[13, 28, 72]",131282721,Hf1Al1Ni2
AlNi3,mp-2593,0.0,8.50778329,0.0,icsd-608813,"{13: 1, 28: 3}","[13, 28]",131283,Al1Ni3
Dy3AlNi8,mp-1192283,0.0,6.51491936,0.0,icsd-607316,"{66: 3, 13: 1, 28: 8}","[13, 28, 66]",131288663,Dy3Al1Ni8
La2AlNi9,mp-568040,0.0,8.31483473,0.0,icsd-162098,"{57: 2, 13: 1, 28: 9}","[13, 28, 57]",131289572,La2Al1Ni9
Ti6Al16Ni7,mp-865235,0.0,8.18121903,0.0,icsd-608909,"{22: 6, 13: 16, 28: 7}","[13, 22, 28]",1316226287,Ti6Al16Ni7
Zr6Al16Ni7,mp-1193679,0.0,7.38648245,0.0,icsd-608966,"{40: 6, 13: 16, 28: 7}","[13, 28, 40]",1316287406,Zr6Al16Ni7
CaNiH3,mp-1207078,0.0,5.68914589,0.0,icsd-171478,"{20: 1, 28: 1, 1: 3}","[1, 20, 28]",13201281,Ca1Ni1H3
ScAl2Ni,mp-12781,0.0,6.79041243,0.0,icsd-370012,"{21: 1, 13: 2, 28: 1}","[13, 21, 28]",132211281,Sc1Al2Ni1
YAl2Ni,mp-13094,0.0,6.24032105,0.0,icsd-160930,"{39: 1, 13: 2, 28: 1}","[13, 28, 39]",132281391,Y1Al2Ni1
PrAl2Ni,mp-1206143,0.0,5.98816047,0.0,pf-26696,"{59: 1, 13: 2, 28: 1}","[13, 28, 59]",132281591,Pr1Al2Ni1
NdAl2Ni,mp-1206051,0.0,5.8700445,0.0,pf-37199,"{60: 1, 13: 2, 28: 1}","[13, 28, 60]",132281601,Nd1Al2Ni1
SmAl2Ni,mp-1025458,0.0,5.69692398,0.0,pf-5767,"{62: 1, 13: 2, 28: 1}","[13, 28, 62]",132281621,Sm1Al2Ni1
GdAl2Ni,mp-630019,0.0,6.04980922,0.0,icsd-57879,"{64: 1, 13: 2, 28: 1}","[13, 28, 64]",132281641,Gd1Al2Ni1
TbAl2Ni,mp-16516,0.0,6.18200771,0.0,icsd-608885,"{65: 1, 13: 2, 28: 1}","[13, 28, 65]",132281651,Tb1Al2Ni1
DyAl2Ni,mp-569385,0.0,6.37806051,0.0,icsd-57759,"{66: 1, 13: 2, 28: 1}","[13, 28, 66]",132281661,Dy1Al2Ni1
HoAl2Ni,mp-16503,0.0,6.20353567,0.0,icsd-57919,"{67: 1, 13: 2, 28: 1}","[13, 28, 67]",132281671,Ho1Al2Ni1
ErAl2Ni,mp-31182,0.0,6.24156725,0.0,icsd-57778,"{68: 1, 13: 2, 28: 1}","[13, 28, 68]",132281681,Er1Al2Ni1
TmAl2Ni,mp-16517,0.0,6.24823674,0.0,icsd-58067,"{69: 1, 13: 2, 28: 1}","[13, 28, 69]",132281691,Tm1Al2Ni1
LuAl2Ni,mp-1025389,0.0,6.2944886,0.0,icsd-608387,"{71: 1, 13: 2, 28: 1}","[13, 28, 71]",132281711,Lu1Al2Ni1
Hf6Al2Ni,mp-1206477,0.0,5.36323402,0.0,pf-32470,"{72: 6, 13: 2, 28: 1}","[13, 28, 72]",132281726,Hf6Al2Ni1
Y3(AlNi3)2,mp-4577,0.0,6.06408773,0.0,icsd-160937,"{39: 3, 13: 2, 28: 6}","[13, 28, 39]",132286393,Y3Al2Ni6
Sm3(AlNi3)2,mp-573541,0.0,5.97176661,0.0,icsd-105533,"{62: 3, 13: 2, 28: 6}","[13, 28, 62]",132286623,Sm3Al2Ni6
Gd3(AlNi3)2,mp-580327,0.0,5.95865483,0.0,icsd-105143,"{64: 3, 13: 2, 28: 6}","[13, 28, 64]",132286643,Gd3Al2Ni6
Tb3(AlNi3)2,mp-1191827,0.0,6.05081912,0.0,icsd-608878,"{65: 3, 13: 2, 28: 6}","[13, 28, 65]",132286653,Tb3Al2Ni6
Dy3(AlNi3)2,mp-16807,0.0,6.06256247,0.0,icsd-607315,"{66: 3, 13: 2, 28: 6}","[13, 28, 66]",132286663,Dy3Al2Ni6
Ho3(AlNi3)2,mp-30791,0.0,6.00120753,0.0,icsd-105154,"{67: 3, 13: 2, 28: 6}","[13, 28, 67]",132286673,Ho3Al2Ni6
Er3(AlNi3)2,mp-17141,0.0,6.03041865,0.0,icsd-607416,"{68: 3, 13: 2, 28: 6}","[13, 28, 68]",132286683,Er3Al2Ni6
Tm3(AlNi3)2,mp-1191848,0.0,5.93196714,0.0,icsd-608911,"{69: 3, 13: 2, 28: 6}","[13, 28, 69]",132286693,Tm3Al2Ni6
Y4Al23Ni6,mp-4847,0.0,7.47033282,0.0,icsd-160933,"{39: 4, 13: 23, 28: 6}","[13, 28, 39]",1323286394,Y4Al23Ni6
Ce4Al23Ni6,mp-582245,0.0,8.01041077,0.0,icsd-240163,"{58: 4, 13: 23, 28: 6}","[13, 28, 58]",1323286584,Ce4Al23Ni6
Sm4Al23Ni6,mp-581770,0.0,7.35338178,0.0,icsd-409777,"{62: 4, 13: 23, 28: 6}","[13, 28, 62]",1323286624,Sm4Al23Ni6
ZrNiH3,mp-29658,0.0,5.79565137,0.0,icsd-638406,"{40: 1, 28: 1, 1: 3}","[1, 28, 40]",13281401,Zr1Ni1H3
Al3Ni,mp-622209,0.0,8.26975877,0.0,icsd-58040,"{13: 3, 28: 1}","[13, 28]",133281,Al3Ni1
Y3Al3NiGe2,mp-10209,0.0,6.08544112,0.0,icsd-76297,"{39: 3, 13: 3, 28: 1, 32: 2}","[13, 28, 32, 39]",133281322393,Y3Al3Ni1Ge2
Er3Al3NiGe2,mp-12388,0.0,6.08918637,0.0,icsd-171194,"{68: 3, 13: 3, 28: 1, 32: 2}","[13, 28, 32, 68]",133281322683,Er3Al3Ni1Ge2
YAl3Ni,mp-4054,0.0,6.39052679,0.0,icsd-160939,"{39: 1, 13: 3, 28: 1}","[13, 28, 39]",133281391,Y1Al3Ni1
SmAl3Ni,mp-1208898,0.0,6.2647745,0.0,pf-20269,"{62: 1, 13: 3, 28: 1}","[13, 28, 62]",133281621,Sm1Al3Ni1
Al3Ni2,mp-1057,0.0,7.84452714,0.0,icsd-608786,"{13: 3, 28: 2}","[13, 28]",133282,Al3Ni2
YAl3Ni2,mp-5063,0.0,6.95556471,0.0,icsd-54425,"{39: 1, 13: 3, 28: 2}","[13, 28, 39]",133282391,Y1Al3Ni2
LaAl3Ni2,mp-1211232,0.0,8.12975613,0.0,pf-19163,"{57: 1, 13: 3, 28: 2}","[13, 28, 57]",133282571,La1Al3Ni2
La5Al3Ni2,mp-569071,0.0,7.60030864,0.0,icsd-415701,"{57: 5, 13: 3, 28: 2}","[13, 28, 57]",133282575,La5Al3Ni2
CeAl3Ni2,mp-20338,0.0,7.86542694,0.0,icsd-602476,"{58: 1, 13: 3, 28: 2}","[13, 28, 58]",133282581,Ce1Al3Ni2
NdAl3Ni2,mp-7186,0.0,6.53478792,0.0,icsd-58034,"{60: 1, 13: 3, 28: 2}","[13, 28, 60]",133282601,Nd1Al3Ni2
SmAl3Ni2,mp-1208873,0.0,6.67582199,0.0,pf-39799,"{62: 1, 13: 3, 28: 2}","[13, 28, 62]",133282621,Sm1Al3Ni2
GdAl3Ni2,mp-1212604,0.0,6.63769598,0.0,pf-13122,"{64: 1, 13: 3, 28: 2}","[13, 28, 64]",133282641,Gd1Al3Ni2
TbAl3Ni2,mp-1208327,0.0,6.83524706,0.0,pf-23643,"{65: 1, 13: 3, 28: 2}","[13, 28, 65]",133282651,Tb1Al3Ni2
DyAl3Ni2,mp-1212853,0.0,6.88415763,0.0,pf-34145,"{66: 1, 13: 3, 28: 2}","[13, 28, 66]",133282661,Dy1Al3Ni2
HoAl3Ni2,mp-1212127,0.0,7.07661877,0.0,pf-2711,"{67: 1, 13: 3, 28: 2}","[13, 28, 67]",133282671,Ho1Al3Ni2
ErAl3Ni2,mp-13490,0.0,6.9360346,0.0,icsd-55529,"{68: 1, 13: 3, 28: 2}","[13, 28, 68]",133282681,Er1Al3Ni2
TmAl3Ni2,mp-1190028,0.0,7.10324113,0.0,icsd-608914,"{69: 1, 13: 3, 28: 2}","[13, 28, 69]",133282691,Tm1Al3Ni2
LuAl3Ni2,mp-1189515,0.0,6.97623093,0.0,icsd-608383,"{71: 1, 13: 3, 28: 2}","[13, 28, 71]",133282711,Lu1Al3Ni2
ThAl3Ni2,mp-30182,0.0,7.91553628,0.0,icsd-58061,"{90: 1, 13: 3, 28: 2}","[13, 28, 90]",133282901,Th1Al3Ni2
Er5Al3Ni3Ge4,mp-638521,0.0,6.17428444,0.0,icsd-172068,"{68: 5, 13: 3, 28: 3, 32: 4}","[13, 28, 32, 68]",133283324685,Er5Al3Ni3Ge4
Al3Ni5,mp-16514,0.0,8.91322567,0.0,icsd-58041,"{13: 3, 28: 5}","[13, 28]",133285,Al3Ni5
Tb2Al4NiGe2,mp-570138,0.0,6.67695984,0.0,icsd-95799,"{65: 2, 13: 4, 28: 1, 32: 2}","[13, 28, 32, 65]",134281322652,Tb2Al4Ni1Ge2
Er2Al4NiGe2,mp-1205834,0.0,6.72522713,0.0,pf-30958,"{68: 2, 13: 4, 28: 1, 32: 2}","[13, 28, 32, 68]",134281322682,Er2Al4Ni1Ge2
YAl4Ni,mp-3602,0.0,6.9517866,0.0,icsd-58077,"{39: 1, 13: 4, 28: 1}","[13, 28, 39]",134281391,Y1Al4Ni1
CeAl4Ni,mp-30750,0.0,7.8699591,0.0,icsd-606496,"{58: 1, 13: 4, 28: 1}","[13, 28, 58]",134281581,Ce1Al4Ni1
PrAl4Ni,mp-1095484,0.0,6.75307511,0.0,icsd-608821,"{59: 1, 13: 4, 28: 1}","[13, 28, 59]",134281591,Pr1Al4Ni1