formula,material_id,band_gap,efermi,energy_above_hull,database_IDs,comp_atoms,sorted_keys_comp_atoms,comp_number,new_formula
Zn11Ni2,mp-11532,0.0,4.20391891,0.0,icsd-424900,"{30: 11, 28: 2}","[28, 30]",2823011,Zn11Ni2
La7ZnNi2,mp-1189728,0.0,7.66885639,0.0,icsd-159116,"{57: 7, 30: 1, 28: 2}","[28, 30, 57]",282301577,La7Zn1Ni2
Tb2ZnNi2,mp-13535,0.0,4.83690485,0.0,icsd-416820,"{65: 2, 30: 1, 28: 2}","[28, 30, 65]",282301652,Tb2Zn1Ni2
Zr(Zn10Ni)2,mp-1195444,0.0,3.46785137,0.0,icsd-252699,"{40: 1, 30: 20, 28: 2}","[28, 30, 40]",2823020401,Zr1Zn20Ni2
Y2GaNi2,mp-1070755,0.0,4.80041388,0.0,icsd-634983,"{39: 2, 31: 1, 28: 2}","[28, 31, 39]",282311392,Y2Ga1Ni2
Pr2GaNi2,mp-1207239,0.0,5.12959629,0.0,pf-3210,"{59: 2, 31: 1, 28: 2}","[28, 31, 59]",282311592,Pr2Ga1Ni2
Nd2GaNi2,mp-1206785,0.0,4.95653614,0.0,pf-24247,"{60: 2, 31: 1, 28: 2}","[28, 31, 60]",282311602,Nd2Ga1Ni2
Sm2GaNi2,mp-1206871,0.0,4.75823823,0.0,pf-12362,"{62: 2, 31: 1, 28: 2}","[28, 31, 62]",282311622,Sm2Ga1Ni2
Tb2GaNi2,mp-1207034,0.0,5.00262916,0.0,pf-12438,"{65: 2, 31: 1, 28: 2}","[28, 31, 65]",282311652,Tb2Ga1Ni2
Dy2GaNi2,mp-1206933,0.0,4.78568822,0.0,pf-33468,"{66: 2, 31: 1, 28: 2}","[28, 31, 66]",282311662,Dy2Ga1Ni2
Dy6GaNi2,mp-1189487,0.0,4.02846263,0.0,icsd-629727,"{66: 6, 31: 1, 28: 2}","[28, 31, 66]",282311666,Dy6Ga1Ni2
Ho2GaNi2,mp-1207237,0.0,4.78329723,0.0,pf-12514,"{67: 2, 31: 1, 28: 2}","[28, 31, 67]",282311672,Ho2Ga1Ni2
Er2GaNi2,mp-1207042,0.0,4.85586462,0.0,pf-699,"{68: 2, 31: 1, 28: 2}","[28, 31, 68]",282311682,Er2Ga1Ni2
Tm2GaNi2,mp-1207025,0.0,4.71196556,0.0,pf-6415,"{69: 2, 31: 1, 28: 2}","[28, 31, 69]",282311692,Tm2Ga1Ni2
Tm6GaNi2,mp-1188961,0.0,3.72386889,0.0,icsd-634972,"{69: 6, 31: 1, 28: 2}","[28, 31, 69]",282311696,Tm6Ga1Ni2
LuGaNi2,mp-1210999,0.0,5.61553393,0.0,pf-34266,"{71: 1, 31: 1, 28: 2}","[28, 31, 71]",282311711,Lu1Ga1Ni2
Lu6GaNi2,mp-1105906,0.0,3.71625335,0.0,icsd-634581,"{71: 6, 31: 1, 28: 2}","[28, 31, 71]",282311716,Lu6Ga1Ni2
La3(GaNi)2,mp-21529,0.0,7.49055295,0.0,icsd-20939,"{57: 3, 31: 2, 28: 2}","[28, 31, 57]",282312573,La3Ga2Ni2
Ga3Ni2,mp-11397,0.0,5.98296901,0.0,icsd-634859,"{31: 3, 28: 2}","[28, 31]",282313,Ga3Ni2
EuGa3Ni2,mp-1102481,0.0,4.69177564,0.0,icsd-631261,"{63: 1, 31: 3, 28: 2}","[28, 31, 63]",282313631,Eu1Ga3Ni2
SrNi2Ge,mp-12520,0.0,5.27801879,0.0,icsd-419659,"{38: 1, 28: 2, 32: 1}","[28, 32, 38]",282321381,Sr1Ni2Ge1
Sr(NiGe)2,mp-3207,0.0,5.45012622,0.0,icsd-409,"{38: 1, 28: 2, 32: 2}","[28, 32, 38]",282322381,Sr1Ni2Ge2
Y(NiGe)2,mp-5109,0.0,6.50813945,0.0,icsd-62933,"{39: 1, 28: 2, 32: 2}","[28, 32, 39]",282322391,Y1Ni2Ge2
La(NiGe)2,mp-19979,0.0,7.93255065,0.0,icsd-636821,"{57: 1, 28: 2, 32: 2}","[28, 32, 57]",282322571,La1Ni2Ge2
Ce(NiGe)2,mp-3325,0.0,7.87755607,0.0,icsd-621229,"{58: 1, 28: 2, 32: 2}","[28, 32, 58]",282322581,Ce1Ni2Ge2
Pr(NiGe)2,mp-5819,0.0,6.30475771,0.0,icsd-637378,"{59: 1, 28: 2, 32: 2}","[28, 32, 59]",282322591,Pr1Ni2Ge2
Nd(NiGe)2,mp-4302,0.0,6.29654096,0.0,icsd-637294,"{60: 1, 28: 2, 32: 2}","[28, 32, 60]",282322601,Nd1Ni2Ge2
Eu(NiGe)2,mp-3333,0.0,5.74307426,0.0,icsd-87254,"{63: 1, 28: 2, 32: 2}","[28, 32, 63]",282322631,Eu1Ni2Ge2
Tb(NiGe)2,mp-3329,0.0,6.47349035,0.0,icsd-57104,"{65: 1, 28: 2, 32: 2}","[28, 32, 65]",282322651,Tb1Ni2Ge2
Dy(NiGe)2,mp-21415,0.0,6.51203638,0.0,icsd-79937,"{66: 1, 28: 2, 32: 2}","[28, 32, 66]",282322661,Dy1Ni2Ge2
Ho(NiGe)2,mp-4291,0.0,6.45788933,0.0,icsd-79938,"{67: 1, 28: 2, 32: 2}","[28, 32, 67]",282322671,Ho1Ni2Ge2
Er(NiGe)2,mp-4865,0.0,6.47351763,0.0,icsd-109428,"{68: 1, 28: 2, 32: 2}","[28, 32, 68]",282322681,Er1Ni2Ge2
Tm(NiGe)2,mp-4195,0.0,6.48474371,0.0,icsd-57107,"{69: 1, 28: 2, 32: 2}","[28, 32, 69]",282322691,Tm1Ni2Ge2
Lu(NiGe)2,mp-13399,0.0,6.51368281,0.0,icsd-106852,"{71: 1, 28: 2, 32: 2}","[28, 32, 71]",282322711,Lu1Ni2Ge2
Th(NiGe)2,mp-3264,0.0,8.00601375,0.0,icsd-55343,"{90: 1, 28: 2, 32: 2}","[28, 32, 90]",282322901,Th1Ni2Ge2
Np(NiGe)2,mp-570073,0.0,9.21129245,0.0,icsd-637368,"{93: 1, 28: 2, 32: 2}","[28, 32, 93]",282322931,Np1Ni2Ge2
Lu3Ni2Ge3,mp-29779,0.0,5.82270064,0.0,icsd-88246,"{71: 3, 28: 2, 32: 3}","[28, 32, 71]",282323713,Lu3Ni2Ge3
Dy4In(NiGe2)2,mp-20748,0.0,5.94385303,0.0,icsd-240335,"{66: 4, 49: 1, 28: 2, 32: 4}","[28, 32, 49, 66]",282324491664,Dy4In1Ni2Ge4
Ho4In(NiGe2)2,mp-13510,0.0,5.92917511,0.0,icsd-240336,"{67: 4, 49: 1, 28: 2, 32: 4}","[28, 32, 49, 67]",282324491674,Ho4In1Ni2Ge4
Er4In(NiGe2)2,mp-13508,0.0,5.99196279,0.0,icsd-240334,"{68: 4, 49: 1, 28: 2, 32: 4}","[28, 32, 49, 68]",282324491684,Er4In1Ni2Ge4
Tm4In(NiGe2)2,mp-13511,0.0,6.00429025,0.0,icsd-240337,"{69: 4, 49: 1, 28: 2, 32: 4}","[28, 32, 49, 69]",282324491694,Tm4In1Ni2Ge4
Ce3Ni2Ge7,mp-1213875,0.0,7.81635017,0.0,pf-41529,"{58: 3, 28: 2, 32: 7}","[28, 32, 58]",282327583,Ce3Ni2Ge7
Sr(NiAs)2,mp-4316,0.0,5.83596736,0.0,icsd-168135,"{38: 1, 28: 2, 33: 2}","[28, 33, 38]",282332381,Sr1Ni2As2
Ba(NiAs)2,mp-568280,0.0,5.11381284,0.0,icsd-185463,"{56: 1, 28: 2, 33: 2}","[28, 33, 56]",282332561,Ba1Ni2As2
La(NiAs)2,mp-20044,0.0,8.50666515,0.0,icsd-68147,"{57: 1, 28: 2, 33: 2}","[28, 33, 57]",282332571,La1Ni2As2
Ce(NiAs)2,mp-610645,0.0,9.13614906,0.0,icsd-68148,"{58: 1, 28: 2, 33: 2}","[28, 33, 58]",282332581,Ce1Ni2As2
Pr(NiAs)2,mp-1087218,0.0,6.95172911,0.0,icsd-611048,"{59: 1, 28: 2, 33: 2}","[28, 33, 59]",282332591,Pr1Ni2As2
Nd(NiAs)2,mp-20836,0.0,6.98443641,0.0,icsd-107956,"{60: 1, 28: 2, 33: 2}","[28, 33, 60]",282332601,Nd1Ni2As2
Eu(NiAs)2,mp-6992,0.0,6.23383965,0.0,icsd-610437,"{63: 1, 28: 2, 33: 2}","[28, 33, 63]",282332631,Eu1Ni2As2
Gd(NiAs)2,mp-582433,0.0,6.95132586,0.0,icsd-610591,"{64: 1, 28: 2, 33: 2}","[28, 33, 64]",282332641,Gd1Ni2As2
TaNi2TeSe,mp-622009,0.0,6.42209577,0.0,icsd-86174,"{73: 1, 28: 2, 52: 1, 34: 1}","[28, 34, 52, 73]",282341521731,Ta1Ni2Te1Se1
Ta11(NiSe4)2,mp-22744,0.0,5.47812484,0.0,icsd-40378,"{73: 11, 28: 2, 34: 8}","[28, 34, 73]",2823487311,Ta11Ni2Se8
Sr(NiSb)2,mp-569881,0.0,6.89191583,0.0,icsd-646442,"{38: 1, 28: 2, 51: 2}","[28, 38, 51]",282381512,Sr1Ni2Sb2
Y2InNi2,mp-569523,0.0,5.61277224,0.0,icsd-640169,"{39: 2, 49: 1, 28: 2}","[28, 39, 49]",282392491,Y2In1Ni2
Y3Ni2,mp-582134,0.0,4.21523618,0.0,icsd-1287,"{39: 3, 28: 2}","[28, 39]",282393,Y3Ni2
Y5(NiTe)2,mp-1207773,0.0,5.41790319,0.0,pf-32365,"{39: 5, 28: 2, 52: 2}","[28, 39, 52]",282395522,Y5Ni2Te2
ZrInNi2,mp-20744,0.0,7.65480843,0.0,icsd-59460,"{40: 1, 49: 1, 28: 2}","[28, 40, 49]",282401491,Zr1In1Ni2
ZrNi2Sb,mp-3469,0.0,8.33396252,0.0,icsd-162586,"{40: 1, 28: 2, 51: 1}","[28, 40, 51]",282401511,Zr1Ni2Sb1
Zr2InNi2,mp-19906,0.0,6.59128458,0.0,icsd-107372,"{40: 2, 49: 1, 28: 2}","[28, 40, 49]",282402491,Zr2In1Ni2
LaNi2Rh3,mp-1018742,0.0,7.2528776,0.0,icsd-183387,"{57: 1, 28: 2, 45: 3}","[28, 45, 57]",282453571,La1Ni2Rh3
La2CdNi2,mp-1207146,0.0,6.86152889,0.0,pf-33060,"{57: 2, 48: 1, 28: 2}","[28, 48, 57]",282481572,La2Cd1Ni2
Pr2CdNi2,mp-11990,0.0,4.37651231,0.0,icsd-414596,"{59: 2, 48: 1, 28: 2}","[28, 48, 59]",282481592,Pr2Cd1Ni2
Nd2CdNi2,mp-11991,0.0,4.2984333,0.0,icsd-414597,"{60: 2, 48: 1, 28: 2}","[28, 48, 60]",282481602,Nd2Cd1Ni2
Tb2CdNi2,mp-1206788,0.0,4.32331536,0.0,pf-21252,"{65: 2, 48: 1, 28: 2}","[28, 48, 65]",282481652,Tb2Cd1Ni2
Pr(Cd10Ni)2,mp-1199068,0.0,3.01163253,0.0,icsd-248548,"{59: 1, 48: 20, 28: 2}","[28, 48, 59]",2824820591,Pr1Cd20Ni2
Nd(Cd10Ni)2,mp-1202765,0.0,3.00450807,0.0,icsd-248549,"{60: 1, 48: 20, 28: 2}","[28, 48, 60]",2824820601,Nd1Cd20Ni2
LaInNi2,mp-21207,0.0,8.41832602,0.0,icsd-106800,"{57: 1, 49: 1, 28: 2}","[28, 49, 57]",282491571,La1In1Ni2
La2InNi2,mp-1106017,0.0,8.22994851,0.0,icsd-185105,"{57: 2, 49: 1, 28: 2}","[28, 49, 57]",282491572,La2In1Ni2
Ce2InNi2,mp-640108,0.0,8.22534892,0.0,icsd-150615,"{58: 2, 49: 1, 28: 2}","[28, 49, 58]",282491582,Ce2In1Ni2
PrInNi2,mp-1080775,0.0,6.5219617,0.0,icsd-658678,"{59: 1, 49: 1, 28: 2}","[28, 49, 59]",282491591,Pr1In1Ni2
Pr2InNi2,mp-1080181,0.0,5.61318464,0.0,icsd-640121,"{59: 2, 49: 1, 28: 2}","[28, 49, 59]",282491592,Pr2In1Ni2
NdInNi2,mp-1079595,0.0,6.50764986,0.0,icsd-658679,"{60: 1, 49: 1, 28: 2}","[28, 49, 60]",282491601,Nd1In1Ni2
Nd2InNi2,mp-1079664,0.0,5.56076636,0.0,icsd-640076,"{60: 2, 49: 1, 28: 2}","[28, 49, 60]",282491602,Nd2In1Ni2
Sm2InNi2,mp-1070631,0.0,5.40374812,0.0,icsd-640143,"{62: 2, 49: 1, 28: 2}","[28, 49, 62]",282491622,Sm2In1Ni2
Gd2InNi2,mp-1076993,0.0,5.15156208,0.0,icsd-291194,"{64: 2, 49: 1, 28: 2}","[28, 49, 64]",282491642,Gd2In1Ni2
Tb2InNi2,mp-1068164,0.0,5.72193779,0.0,icsd-291195,"{65: 2, 49: 1, 28: 2}","[28, 49, 65]",282491652,Tb2In1Ni2
Dy2InNi2,mp-1068319,0.0,5.67256474,0.0,icsd-291196,"{66: 2, 49: 1, 28: 2}","[28, 49, 66]",282491662,Dy2In1Ni2
Ho2InNi2,mp-1068024,0.0,5.57406511,0.0,icsd-639335,"{67: 2, 49: 1, 28: 2}","[28, 49, 67]",282491672,Ho2In1Ni2
Er2InNi2,mp-1067986,0.0,5.61682515,0.0,icsd-630688,"{68: 2, 49: 1, 28: 2}","[28, 49, 68]",282491682,Er2In1Ni2
Tm2InNi2,mp-1068283,0.0,5.56243746,0.0,icsd-640159,"{69: 2, 49: 1, 28: 2}","[28, 49, 69]",282491692,Tm2In1Ni2
Lu2InNi2,mp-1068243,0.0,5.56043726,0.0,icsd-639917,"{71: 2, 49: 1, 28: 2}","[28, 49, 71]",282491712,Lu2In1Ni2
In3Ni2,mp-21385,0.0,8.90197844,0.0,icsd-640109,"{49: 3, 28: 2}","[28, 49]",282493,In3Ni2
Tb5(In2Ni)2,mp-1191784,0.0,5.71547087,0.0,icsd-186561,"{65: 5, 49: 4, 28: 2}","[28, 49, 65]",282494655,Tb5In4Ni2
Dy5(In2Ni)2,mp-607124,0.0,5.79049147,0.0,icsd-418923,"{66: 5, 49: 4, 28: 2}","[28, 49, 66]",282494665,Dy5In4Ni2
Ho5(In2Ni)2,mp-1191532,0.0,5.73864521,0.0,icsd-639338,"{67: 5, 49: 4, 28: 2}","[28, 49, 67]",282494675,Ho5In4Ni2
Er5(In2Ni)2,mp-1192568,0.0,5.81375431,0.0,icsd-630691,"{68: 5, 49: 4, 28: 2}","[28, 49, 68]",282494685,Er5In4Ni2
Tm5(In2Ni)2,mp-1191271,0.0,5.76658466,0.0,icsd-640162,"{69: 5, 49: 4, 28: 2}","[28, 49, 69]",282494695,Tm5In4Ni2
Lu5(In2Ni)2,mp-646321,0.0,5.79145478,0.0,icsd-106807,"{71: 5, 49: 4, 28: 2}","[28, 49, 71]",282494715,Lu5In4Ni2
Ce2Ni2Sn,mp-22713,0.0,8.7484676,0.0,icsd-55495,"{58: 2, 28: 2, 50: 1}","[28, 50, 58]",282501582,Ce2Ni2Sn1
Pr2Ni2Sn,mp-1068489,0.0,6.13484693,0.0,icsd-425429,"{59: 2, 28: 2, 50: 1}","[28, 50, 59]",282501592,Pr2Ni2Sn1
Nd2Ni2Sn,mp-1207129,0.0,6.13555251,0.0,pf-4248,"{60: 2, 28: 2, 50: 1}","[28, 50, 60]",282501602,Nd2Ni2Sn1
Gd2Ni2Sn,mp-1206945,0.0,5.9772422,0.0,pf-25851,"{64: 2, 28: 2, 50: 1}","[28, 50, 64]",282501642,Gd2Ni2Sn1
Tb2Ni2Sn,mp-1068217,0.0,6.26170302,0.0,icsd-195573,"{65: 2, 28: 2, 50: 1}","[28, 50, 65]",282501652,Tb2Ni2Sn1
Dy2Ni2Sn,mp-1207036,0.0,6.27950049,0.0,pf-4846,"{66: 2, 28: 2, 50: 1}","[28, 50, 66]",282501662,Dy2Ni2Sn1
Ho2Ni2Sn,mp-1078261,0.0,5.94530562,0.0,icsd-196359,"{67: 2, 28: 2, 50: 1}","[28, 50, 67]",282501672,Ho2Ni2Sn1
Er2Ni2Sn,mp-1080713,0.0,6.0119879,0.0,icsd-196360,"{68: 2, 28: 2, 50: 1}","[28, 50, 68]",282501682,Er2Ni2Sn1
Tm2Ni2Sn,mp-1095204,0.0,5.84323387,0.0,icsd-425432,"{69: 2, 28: 2, 50: 1}","[28, 50, 69]",282501692,Tm2Ni2Sn1
Lu6Ni2Sn,mp-30771,0.0,4.37347759,0.0,icsd-104810,"{71: 6, 28: 2, 50: 1}","[28, 50, 71]",282501716,Lu6Ni2Sn1
La(NiSn)2,mp-1078717,0.0,8.63771734,0.0,icsd-603430,"{57: 1, 28: 2, 50: 2}","[28, 50, 57]",282502571,La1Ni2Sn2
Ce(NiSn)2,mp-1078794,0.0,8.62434433,0.0,icsd-621690,"{58: 1, 28: 2, 50: 2}","[28, 50, 58]",282502581,Ce1Ni2Sn2
Pr(NiSn)2,mp-567909,0.0,6.96646561,0.0,icsd-646290,"{59: 1, 28: 2, 50: 2}","[28, 50, 59]",282502591,Pr1Ni2Sn2
Nd(NiSn)2,mp-20000,0.0,7.17601401,0.0,icsd-160053,"{60: 1, 28: 2, 50: 2}","[28, 50, 60]",282502601,Nd1Ni2Sn2
Th(NiSn)2,mp-980110,0.0,8.78493465,0.0,icsd-602652,"{90: 1, 28: 2, 50: 2}","[28, 50, 90]",282502901,Th1Ni2Sn2
Ni2Sn4Au,mp-568925,0.0,8.47777087,0.0,icsd-150127,"{28: 2, 50: 4, 79: 1}","[28, 50, 79]",282504791,Ni2Sn4Au1
La3Ni2Sn7,mp-13093,0.0,8.7743681,0.0,icsd-160913,"{57: 3, 28: 2, 50: 7}","[28, 50, 57]",282507573,La3Ni2Sn7
Ce3Ni2Sn7,mp-510126,0.0,8.60139072,0.0,icsd-621695,"{58: 3, 28: 2, 50: 7}","[28, 50, 58]",282507583,Ce3Ni2Sn7
Nd3Ni2Sn7,mp-1101908,0.0,7.27067757,0.0,icsd-645653,"{60: 3, 28: 2, 50: 7}","[28, 50, 60]",282507603,Nd3Ni2Sn7
Ni2SbTe2,mp-3250,0.0,8.08232919,0.0,icsd-99117,"{28: 2, 51: 1, 52: 2}","[28, 51, 52]",282511522,Ni2Sb1Te2
Dy5Ni2Sb,mp-9353,0.0,4.79328632,0.0,icsd-81765,"{66: 5, 28: 2, 51: 1}","[28, 51, 66]",282511665,Dy5Ni2Sb1
Er5Ni2Sb,mp-1213207,0.0,4.70337711,0.0,pf-37864,"{68: 5, 28: 2, 51: 1}","[28, 51, 68]",282511685,Er5Ni2Sb1
Tm5Ni2Sb,mp-1207984,0.0,4.72296351,0.0,pf-16942,"{69: 5, 28: 2, 51: 1}","[28, 51, 69]",282511695,Tm5Ni2Sb1
Lu5Ni2Sb,mp-1210754,0.0,4.61434312,0.0,pf-30855,"{71: 5, 28: 2, 51: 1}","[28, 51, 71]",282511715,Lu5Ni2Sb1
HfNi2Sb,mp-1078574,0.0,8.73916181,0.0,icsd-638718,"{72: 1, 28: 2, 51: 1}","[28, 51, 72]",282511721,Hf1Ni2Sb1
Ce(NiSb)2,mp-1078924,0.0,9.14637289,0.0,icsd-658378,"{58: 1, 28: 2, 51: 2}","[28, 51, 58]",282512581,Ce1Ni2Sb2
Pr(NiSb)2,mp-1078736,0.0,7.95130135,0.0,icsd-646262,"{59: 1, 28: 2, 51: 2}","[28, 51, 59]",282512591,Pr1Ni2Sb2
Nd(NiSb)2,mp-976380,0.0,7.8342306,0.0,icsd-645623,"{60: 1, 28: 2, 51: 2}","[28, 51, 60]",282512601,Nd1Ni2Sb2
Eu(NiSb)2,mp-570308,0.0,7.14897336,0.0,icsd-631439,"{63: 1, 28: 2, 51: 2}","[28, 51, 63]",282512631,Eu1Ni2Sb2
Er5(NiTe)2,mp-567994,0.0,5.43305059,0.0,icsd-150369,"{68: 5, 28: 2, 52: 2}","[28, 52, 68]",282522685,Er5Ni2Te2
Er7(NiTe)2,mp-29914,0.0,4.71456104,0.0,icsd-280628,"{68: 7, 28: 2, 52: 2}","[28, 52, 68]",282522687,Er7Ni2Te2
Lu7(NiTe)2,mp-11752,0.0,4.67472988,0.0,icsd-98969,"{71: 7, 28: 2, 52: 2}","[28, 52, 71]",282522717,Lu7Ni2Te2
TaNi2Te3,mp-9391,0.0,5.94233357,0.0,icsd-82605,"{73: 1, 28: 2, 52: 3}","[28, 52, 73]",282523731,Ta1Ni2Te3
La2Ni2I,mp-1070264,0.0,7.67773843,0.0,icsd-165262,"{57: 2, 28: 2, 53: 1}","[28, 53, 57]",282531572,La2Ni2I1
Pr2Ni2I,mp-568506,0.0,5.51522295,0.0,icsd-84702,"{59: 2, 28: 2, 53: 1}","[28, 53, 59]",282531592,Pr2Ni2I1
CeNi2,mp-1654,0.0,9.38692474,0.0,icsd-621596,"{58: 1, 28: 2}","[28, 58]",282581,Ce1Ni2
SmNi2,mp-1402,0.0,6.02553657,0.0,icsd-646699,"{62: 1, 28: 2}","[28, 62]",282621,Sm1Ni2
GdNi2,mp-543019,0.0,5.94032584,0.0,icsd-636024,"{64: 1, 28: 2}","[28, 64]",282641,Gd1Ni2
TbNi2,mp-276,0.0,6.18216075,0.0,icsd-154459,"{65: 1, 28: 2}","[28, 65]",282651,Tb1Ni2
DyNi2,mp-421,0.0,6.03719267,0.0,icsd-630006,"{66: 1, 28: 2}","[28, 66]",282661,Dy1Ni2
Dy3Ni2,mp-7281,0.0,4.36557112,0.0,icsd-2334,"{66: 3, 28: 2}","[28, 66]",282663,Dy3Ni2
HoNi2,mp-673,0.0,6.08797387,0.0,icsd-104425,"{67: 1, 28: 2}","[28, 67]",282671,Ho1Ni2
Ho2Ni2Pb,mp-3398,0.0,5.79789884,0.0,icsd-153374,"{67: 2, 28: 2, 82: 1}","[28, 67, 82]",282672821,Ho2Ni2Pb1
ErNi2,mp-1939,0.0,6.03758261,0.0,icsd-103265,"{68: 1, 28: 2}","[28, 68]",282681,Er1Ni2
Er5Ni2Bi,mp-1213249,0.0,4.50738603,0.0,pf-6483,"{68: 5, 28: 2, 83: 1}","[28, 68, 83]",282685831,Er5Ni2Bi1
TmNi2,mp-1576,0.0,5.92765295,0.0,icsd-646999,"{69: 1, 28: 2}","[28, 69]",282691,Tm1Ni2
Tm2Ni2Pb,mp-1206382,0.0,5.80641101,0.0,pf-36727,"{69: 2, 28: 2, 82: 1}","[28, 69, 82]",282692821,Tm2Ni2Pb1
Tm5Ni2Bi,mp-1208016,0.0,4.44960925,0.0,pf-27486,"{69: 5, 28: 2, 83: 1}","[28, 69, 83]",282695831,Tm5Ni2Bi1
LuNi2,mp-2130,0.0,5.97278512,0.0,icsd-642454,"{71: 1, 28: 2}","[28, 71]",282711,Lu1Ni2
Lu5Ni2Bi,mp-1210651,0.0,4.39042047,0.0,pf-31784,"{71: 5, 28: 2, 83: 1}","[28, 71, 83]",282715831,Lu5Ni2Bi1
Lu10Ni28As19,mp-1212094,0.0,6.91105295,0.0,pf-5527,"{71: 10, 28: 28, 33: 19}","[28, 33, 71]",282833197110,Lu10Ni28As19
ThNi2,mp-220,0.0,7.59186158,0.0,icsd-646925,"{90: 1, 28: 2}","[28, 90]",282901,Th1Ni2
NpNi2,mp-1532,0.0,12.54023685,0.0,icsd-105305,"{93: 1, 28: 2}","[28, 93]",282931,Np1Ni2
Y15Ni32,mp-1200338,0.0,5.75240403,0.0,icsd-638401,"{39: 15, 28: 32}","[28, 39]",28323915,Y15Ni32
Zn(GaNi)3,mp-570845,0.0,5.6128012,0.0,icsd-103898,"{30: 1, 31: 3, 28: 3}","[28, 30, 31]",283301313,Zn1Ga3Ni3
Zn22Ni3,mp-1207504,0.0,3.77691648,0.0,pf-26850,"{30: 22, 28: 3}","[28, 30]",2833022,Zn22Ni3
GaNi3,mp-815,0.0,7.25783805,0.0,icsd-103856,"{31: 1, 28: 3}","[28, 31]",283311,Ga1Ni3
YGa2Ni3,mp-30659,0.0,5.85199435,0.0,icsd-103896,"{39: 1, 31: 2, 28: 3}","[28, 31, 39]",283312391,Y1Ga2Ni3
TmGa2Ni3,mp-1106118,0.0,5.74207738,0.0,icsd-634966,"{69: 1, 31: 2, 28: 3}","[28, 31, 69]",283312691,Tm1Ga2Ni3
Ni3Ge,mp-21008,0.0,8.66288834,0.0,icsd-607999,"{28: 3, 32: 1}","[28, 32]",283321,Ni3Ge1
SrNi3Ge2,mp-12521,0.0,6.0798678,0.0,icsd-419660,"{38: 1, 28: 3, 32: 2}","[28, 32, 38]",283322381,Sr1Ni3Ge2
TmNi3Ge2,mp-1208263,0.0,5.85211109,0.0,pf-31403,"{69: 1, 28: 3, 32: 2}","[28, 32, 69]",283322691,Tm1Ni3Ge2
Ce2Ni3Ge5,mp-1213960,0.0,7.08265365,0.0,pf-41450,"{58: 2, 28: 3, 32: 5}","[28, 32, 58]",283325582,Ce2Ni3Ge5
Hf2(NiAs)3,mp-1203331,0.0,7.38667438,0.0,icsd-610649,"{72: 2, 28: 3, 33: 3}","[28, 33, 72]",283333722,Hf2Ni3As3
Ni3Se2,mp-2056,0.0,6.12520908,0.0,icsd-646517,"{28: 3, 34: 2}","[28, 34]",283342,Ni3Se2
Ni3(BiSe)2,mp-30973,0.0,6.69169381,0.0,icsd-616879,"{28: 3, 83: 2, 34: 2}","[28, 34, 83]",283342832,Ni3Bi2Se2
Rb2Ni3Se4,mp-18691,0.0,1.24267693,0.0,icsd-78976,"{37: 2, 28: 3, 34: 4}","[28, 34, 37]",283344372,Rb2Ni3Se4
Cs2Ni3Se4,mp-14336,0.6160000000000001,3.1075746,0.0,icsd-33891,"{55: 2, 28: 3, 34: 4}","[28, 34, 55]",283344552,Cs2Ni3Se4
Ta2Ni3Se8,mp-541509,0.3317000000000001,3.84381739,0.0,icsd-80881,"{73: 2, 28: 3, 34: 8}","[28, 34, 73]",283348732,Ta2Ni3Se8
YNi3,mp-569196,0.0,6.29827414,0.0,icsd-638403,"{39: 1, 28: 3}","[28, 39]",283391,Y1Ni3
ZrNi3,mp-485,0.0,7.05418019,0.0,icsd-105483,"{40: 1, 28: 3}","[28, 40]",283401,Zr1Ni3
Zr3Ni3Sb4,mp-17926,0.4341999999999997,8.09654286,0.0,icsd-87995,"{40: 3, 28: 3, 51: 4}","[28, 40, 51]",283403514,Zr3Ni3Sb4
NbNi3,mp-1451,0.0,7.34496715,0.0,icsd-105176,"{41: 1, 28: 3}","[28, 41]",283411,Nb1Ni3
Ni3Mo,mp-11506,0.0,8.39069138,0.0,icsd-105046,"{28: 3, 42: 1}","[28, 42]",283421,Ni3Mo1
In7Ni3,mp-1212307,0.8483999999999998,7.97055855,0.0,pf-25262,"{49: 7, 28: 3}","[28, 49]",283497,In7Ni3
Ni3Sn,mp-11522,0.0,9.40697824,0.0,icsd-105353,"{28: 3, 50: 1}","[28, 50]",283501,Ni3Sn1
Ni3Sn2,mp-669720,0.0,9.43599123,0.0,icsd-105358,"{28: 3, 50: 2}","[28, 50]",283502,Ni3Sn2
Ni3Sn4,mp-20174,0.0,9.22172319,0.0,icsd-653734,"{28: 3, 50: 4}","[28, 50]",283504,Ni3Sn4
Th3Ni3Sn4,mp-1189639,0.0,8.20250139,0.0,icsd-657422,"{90: 3, 28: 3, 50: 4}","[28, 50, 90]",283504903,Th3Ni3Sn4
Hf3Ni3Sb4,mp-1212441,0.7419999999999991,8.90422995,0.0,pf-21838,"{72: 3, 28: 3, 51: 4}","[28, 51, 72]",283514723,Hf3Ni3Sb4
U3Ni3Sb4,mp-504640,0.0,10.44932268,0.0,icsd-657094,"{92: 3, 28: 3, 51: 4}","[28, 51, 92]",283514923,U3Ni3Sb4
Ta2Ni3Te5,mp-1208475,0.02119999999999944,6.4068014,0.0,pf-40104,"{73: 2, 28: 3, 52: 5}","[28, 52, 73]",283525732,Ta2Ni3Te5
La3Ni3Bi4,mp-1211407,0.0,7.71813338,0.0,pf-13228,"{57: 3, 28: 3, 83: 4}","[28, 57, 83]",283573834,La3Ni3Bi4
La7Ni3,mp-573855,0.0,8.08113676,0.0,icsd-641512,"{57: 7, 28: 3}","[28, 57]",283577,La7Ni3
CeNi3,mp-580354,0.0,8.69568058,0.0,icsd-249414,"{58: 1, 28: 3}","[28, 58]",283581,Ce1Ni3
PrNi3,mp-1102445,0.0,6.35067794,0.0,icsd-646242,"{59: 1, 28: 3}","[28, 59]",283591,Pr1Ni3
Pr3Ni3Bi4,mp-1209761,0.0,5.92849163,0.0,pf-32831,"{59: 3, 28: 3, 83: 4}","[28, 59, 83]",283593834,Pr3Ni3Bi4
NdNi3,mp-1095561,0.0,6.39638206,0.0,icsd-645590,"{60: 1, 28: 3}","[28, 60]",283601,Nd1Ni3
SmNi3,mp-1095619,0.0,6.05593285,0.0,icsd-646696,"{62: 1, 28: 3}","[28, 62]",283621,Sm1Ni3
GdNi3,mp-1101986,0.0,6.16523687,0.0,icsd-104090,"{64: 1, 28: 3}","[28, 64]",283641,Gd1Ni3
TbNi3,mp-1102054,0.0,6.31453507,0.0,icsd-646864,"{65: 1, 28: 3}","[28, 65]",283651,Tb1Ni3
DyNi3,mp-1102078,0.0,6.24078769,0.0,icsd-630007,"{66: 1, 28: 3}","[28, 66]",283661,Dy1Ni3
HoNi3,mp-2042,0.0,6.26444842,0.0,icsd-639446,"{67: 1, 28: 3}","[28, 67]",283671,Ho1Ni3
ErNi3,mp-1051,0.0,6.27022527,0.0,icsd-152847,"{68: 1, 28: 3}","[28, 68]",283681,Er1Ni3
TmNi3,mp-1102684,0.0,6.07197,0.0,icsd-646988,"{69: 1, 28: 3}","[28, 69]",283691,Tm1Ni3
HfNi3,mp-12174,0.0,7.44119567,0.0,icsd-2415,"{72: 1, 28: 3}","[28, 72]",283721,Hf1Ni3
TaNi3,mp-569776,0.0,7.64678997,0.0,icsd-646836,"{73: 1, 28: 3}","[28, 73]",283731,Ta1Ni3
Ni3Pt,mp-12798,0.0,7.79805323,0.0,icsd-151193,"{28: 3, 78: 1}","[28, 78]",283781,Ni3Pt1
U3Ni3Bi4,mp-1208030,0.034900000000000375,9.25528141,0.0,pf-34117,"{92: 3, 28: 3, 83: 4}","[28, 83, 92]",283834923,U3Ni3Bi4
Th7Ni3,mp-30809,0.0,7.70144547,0.0,icsd-646929,"{90: 7, 28: 3}","[28, 90]",283907,Th7Ni3
PuNi3,mp-636403,0.0,9.57513695,0.0,icsd-105321,"{94: 1, 28: 3}","[28, 94]",283941,Pu1Ni3