formula,material_id,band_gap,efermi,energy_above_hull,database_IDs,comp_atoms,sorted_keys_comp_atoms,comp_number,new_formula
KNiF3,mp-560976,0.0,1.41033415,0.0,icsd-44786,"{19: 1, 28: 1, 9: 3}","[9, 19, 28]",93191281,K1Ni1F3
NiF3,mp-614777,0.0,-1.17481417,0.0,icsd-87943,"{28: 1, 9: 3}","[9, 28]",93281,Ni1F3
RbNiF3,mp-556488,4.6929,-0.76780246,0.0,icsd-91834,"{37: 1, 28: 1, 9: 3}","[9, 28, 37]",93281371,Rb1Ni1F3
CsNiF3,mp-557772,5.3618,-1.05853017,0.0,icsd-410394,"{55: 1, 28: 1, 9: 3}","[9, 28, 55]",93281551,Cs1Ni1F3
K2NiF4,mp-556546,3.6693,-0.74243056,0.0,icsd-631720,"{19: 2, 28: 1, 9: 4}","[9, 19, 28]",94192281,K2Ni1F4
Rb2NiF4,mp-561317,3.7349,-0.66644501,0.0,icsd-69682,"{37: 2, 28: 1, 9: 4}","[9, 28, 37]",94281372,Rb2Ni1F4
BaNiF4,mp-555321,4.6572,-0.4678982,0.0,icsd-23141,"{56: 1, 28: 1, 9: 4}","[9, 28, 56]",94281561,Ba1Ni1F4
Tl2NiF4,mp-1206532,0.0,3.2126051,0.0,pf-18468,"{81: 2, 28: 1, 9: 4}","[9, 28, 81]",94281812,Tl2Ni1F4
Na3NiF6,mp-554649,2.4132,-1.63767143,0.0,icsd-26073,"{11: 3, 28: 1, 9: 6}","[9, 11, 28]",96113281,Na3Ni1F6
Ni2Hg2SF6,mp-18626,0.0,2.40386584,0.0,icsd-166545,"{28: 2, 80: 2, 16: 1, 9: 6}","[9, 16, 28, 80]",96161282802,Ni2Hg2S1F6
K2NiF6,mp-605034,2.3603,-3.04040066,0.0,icsd-41416,"{19: 2, 28: 1, 9: 6}","[9, 19, 28]",96192281,K2Ni1F6
Rb2NiF6,mp-556417,2.4215999999999998,-3.17595707,0.0,icsd-29005,"{37: 2, 28: 1, 9: 6}","[9, 28, 37]",96281372,Rb2Ni1F6
SrNiF6,mp-555718,1.7074,-1.22624429,0.0,icsd-30114,"{38: 1, 28: 1, 9: 6}","[9, 28, 38]",96281381,Sr1Ni1F6
ZrNiF6,mp-1206530,0.0,-0.50860223,0.0,pf-24250,"{40: 1, 28: 1, 9: 6}","[9, 28, 40]",96281401,Zr1Ni1F6
NiRhF6,mp-20580,0.01589999999999997,-0.45472809,0.0,icsd-42164,"{28: 1, 45: 1, 9: 6}","[9, 28, 45]",96281451,Ni1Rh1F6
NiSnF6,mp-560023,0.0,1.50613001,0.0,icsd-25015,"{28: 1, 50: 1, 9: 6}","[9, 28, 50]",96281501,Ni1Sn1F6
Cs2NiF6,mp-689925,2.4357,-2.75247154,0.0,icsd-44789,"{55: 2, 28: 1, 9: 6}","[9, 28, 55]",96281552,Cs2Ni1F6
BaNiF6,mp-613910,0.4727,-1.43126685,0.0,icsd-35396,"{56: 1, 28: 1, 9: 6}","[9, 28, 56]",96281561,Ba1Ni1F6
NiPtF6,mp-558838,1.6021,-0.28831821,0.0,icsd-78905,"{28: 1, 78: 1, 9: 6}","[9, 28, 78]",96281781,Ni1Pt1F6
NiPbF6,mp-20854,2.2615,-1.12285622,0.0,icsd-15108,"{28: 1, 82: 1, 9: 6}","[9, 28, 82]",96281821,Ni1Pb1F6
Na2VNiF7,mp-1191842,2.4654,0.25934132,0.0,icsd-407015,"{11: 2, 23: 1, 28: 1, 9: 7}","[9, 11, 23, 28]",97112231281,Na2V1Ni1F7
Na2CrNiF7,mp-558356,3.8487,-0.88028694,0.0,icsd-65282,"{11: 2, 24: 1, 28: 1, 9: 7}","[9, 11, 24, 28]",97112241281,Na2Cr1Ni1F7
Na2FeNiF7,mp-561395,2.8749000000000002,-0.73789055,0.0,icsd-1511,"{11: 2, 26: 1, 28: 1, 9: 7}","[9, 11, 26, 28]",97112261281,Na2Fe1Ni1F7
Na2CoNiF7,mp-1210483,1.4955,-1.34304079,0.0,pf-33417,"{11: 2, 27: 1, 28: 1, 9: 7}","[9, 11, 27, 28]",97112271281,Na2Co1Ni1F7
Na2GaNiF7,mp-558993,4.015000000000001,-0.6353195,0.0,icsd-408111,"{11: 2, 31: 1, 28: 1, 9: 7}","[9, 11, 28, 31]",97112281311,Na2Ga1Ni1F7
Na2InNiF7,mp-22820,1.0609,1.53964718,0.0,icsd-72110,"{11: 2, 49: 1, 28: 1, 9: 7}","[9, 11, 28, 49]",97112281491,Na2In1Ni1F7
AlNiAg2F7,mp-1214829,1.9697,0.73459213,0.0,pf-36089,"{13: 1, 28: 1, 47: 2, 9: 7}","[9, 13, 28, 47]",97131281472,Al1Ni1Ag2F7
K3Ni2F7,mp-560449,3.5833000000000004,-0.40183749,0.0,icsd-33523,"{19: 3, 28: 2, 9: 7}","[9, 19, 28]",97193282,K3Ni2F7
CrNiAg2F7,mp-1213740,1.6573999999999998,0.36047255,0.0,pf-41405,"{24: 1, 28: 1, 47: 2, 9: 7}","[9, 24, 28, 47]",97241281472,Cr1Ni1Ag2F7
InNiAg2F7,mp-1212006,1.4768,0.48297318,0.0,pf-4626,"{49: 1, 28: 1, 47: 2, 9: 7}","[9, 28, 47, 49]",97281472491,In1Ni1Ag2F7
Cs3NiF7,mp-17450,0.8734999999999999,-0.83353556,0.0,icsd-9600,"{55: 3, 28: 1, 9: 7}","[9, 28, 55]",97281553,Cs3Ni1F7
Ni(AuF4)2,mp-22552,0.0,-0.74592967,0.0,icsd-65288,"{28: 1, 79: 2, 9: 8}","[9, 28, 79]",98281792,Ni1Au2F8