formula,material_id,band_gap,efermi,energy_above_hull,database_IDs,comp_atoms,sorted_keys_comp_atoms,comp_number,new_formula
Sr(Si3N4)2,mp-567278,3.243099999999999,5.69386044,0.0,icsd-391265,"{38: 1, 14: 6, 7: 8}","[7, 14, 38]",78146381,Sr1Si6N8
Ba(Si3N4)2,mp-567771,3.2602,5.72482551,0.0,icsd-417444,"{56: 1, 14: 6, 7: 8}","[7, 14, 56]",78146561,Ba1Si6N8
BaSi6N8O,mp-557414,4.2279,5.20854622,0.0,icsd-415272,"{56: 1, 14: 6, 7: 8, 8: 1}","[7, 8, 14, 56]",7881146561,Ba1Si6N8O1
Ca7NbSi2N9,mp-567722,1.9855,4.07016166,0.0,icsd-414461,"{20: 7, 41: 1, 14: 2, 7: 9}","[7, 14, 20, 41]",79142207411,Ca7Nb1Si2N9
La5(SiN3)3,mp-569576,1.9651999999999994,8.11385044,0.0,icsd-419064,"{57: 5, 14: 3, 7: 9}","[7, 14, 57]",79143575,La5Si3N9
Y3Si5N9O,mp-1207796,2.5775000000000006,5.34689642,0.0,pf-30207,"{39: 3, 14: 5, 7: 9, 8: 1}","[7, 8, 14, 39]",7981145393,Y3Si5N9O1
KNaMn(Si2O5)2,mp-554248,3.0188000000000006,2.03917675,0.0,icsd-260176,"{19: 1, 11: 1, 25: 1, 14: 4, 8: 10}","[8, 11, 14, 19, 25]",810111144191251,K1Na1Mn1Si4O10
KNaFe(Si2O5)2,mp-19130,2.9975,2.12136381,0.0,icsd-20098,"{19: 1, 11: 1, 26: 1, 14: 4, 8: 10}","[8, 11, 14, 19, 26]",810111144191261,K1Na1Fe1Si4O10
Na2Ca3Si3O10,mp-556679,4.375500000000001,1.55278284,0.0,icsd-36399,"{11: 2, 20: 3, 14: 3, 8: 10}","[8, 11, 14, 20]",810112143203,Na2Ca3Si3O10
Na2Cd3Si3O10,mp-6078,2.4532999999999996,1.27147053,0.0,icsd-28416,"{11: 2, 48: 3, 14: 3, 8: 10}","[8, 11, 14, 48]",810112143483,Na2Cd3Si3O10
Na4Cd2Si3O10,mp-556413,2.7504999999999997,1.07983312,0.0,icsd-28200,"{11: 4, 48: 2, 14: 3, 8: 10}","[8, 11, 14, 48]",810114143482,Na4Cd2Si3O10
Zn4SiTePbO10,mp-558938,2.1602000000000006,2.58547689,0.0,icsd-410650,"{30: 4, 14: 1, 52: 1, 82: 1, 8: 10}","[8, 14, 30, 52, 82]",810141304521821,Zn4Si1Te1Pb1O10
Ba2In2Si3SO10,mp-1194952,2.8920000000000003,2.67907739,0.0,icsd-430641,"{56: 2, 49: 2, 14: 3, 16: 1, 8: 10}","[8, 14, 16, 49, 56]",810143161492562,Ba2In2Si3S1O10
BaSc2Si3O10,mp-1194834,4.758,2.42852112,0.0,icsd-167617,"{56: 1, 21: 2, 14: 3, 8: 10}","[8, 14, 21, 56]",810143212561,Ba1Sc2Si3O10
BaY2Si3O10,mp-560478,4.8161000000000005,2.00589436,0.0,icsd-240470,"{56: 1, 39: 2, 14: 3, 8: 10}","[8, 14, 39, 56]",810143392561,Ba1Y2Si3O10
BaGd2Si3O10,mp-1197749,0.14579999999999993,2.94051982,0.0,icsd-167614,"{56: 1, 64: 2, 14: 3, 8: 10}","[8, 14, 56, 64]",810143561642,Ba1Gd2Si3O10
BaDy2Si3O10,mp-1195063,4.8053,1.99899631,0.0,icsd-429615,"{56: 1, 66: 2, 14: 3, 8: 10}","[8, 14, 56, 66]",810143561662,Ba1Dy2Si3O10
BaEr2Si3O10,mp-1195744,4.8348,2.03624232,0.0,icsd-167615,"{56: 1, 68: 2, 14: 3, 8: 10}","[8, 14, 56, 68]",810143561682,Ba1Er2Si3O10
BaLu2Si3O10,mp-1194557,4.830500000000001,6.73022215,0.0,icsd-195951,"{56: 1, 71: 2, 14: 3, 8: 10}","[8, 14, 56, 71]",810143561712,Ba1Lu2Si3O10
K2Zn(Si2O5)2,mp-555568,4.2665,0.36574452,0.0,icsd-68499,"{19: 2, 30: 1, 14: 4, 8: 10}","[8, 14, 19, 30]",810144192301,K2Zn1Si4O10
SrCr(Si2O5)2,mp-19508,3.2707,2.36396612,0.0,icsd-83464,"{38: 1, 24: 1, 14: 4, 8: 10}","[8, 14, 24, 38]",810144241381,Sr1Cr1Si4O10
BaCr(Si2O5)2,mp-19518,3.2289,2.19446682,0.0,icsd-83463,"{56: 1, 24: 1, 14: 4, 8: 10}","[8, 14, 24, 56]",810144241561,Ba1Cr1Si4O10
Er3SiSe2O10F,mp-555942,4.0849,1.44529459,0.0,icsd-418941,"{68: 3, 14: 1, 34: 2, 8: 10, 9: 1}","[8, 9, 14, 34, 68]",81091141342683,Er3Si1Se2O10F1
Dy3Si3O10F,mp-16164,5.277799999999999,2.06376873,0.0,icsd-92510,"{66: 3, 14: 3, 8: 10, 9: 1}","[8, 9, 14, 66]",81091143663,Dy3Si3O10F1
Ho3Si3O10F,mp-16165,5.1282,2.04280743,0.0,icsd-92511,"{67: 3, 14: 3, 8: 10, 9: 1}","[8, 9, 14, 67]",81091143673,Ho3Si3O10F1
KSr2Si4O10F,mp-1211577,4.8589,5.42861652,0.0,pf-500,"{19: 1, 38: 2, 14: 4, 8: 10, 9: 1}","[8, 9, 14, 19, 38]",81091144191382,K1Sr2Si4O10F1
KEu2Si4O10F,mp-561529,0.0,5.39194304,0.0,icsd-400054,"{19: 1, 63: 2, 14: 4, 8: 10, 9: 1}","[8, 9, 14, 19, 63]",81091144191632,K1Eu2Si4O10F1
K2ScSi4O10F,mp-557777,4.7453,0.71303505,0.0,icsd-54880,"{19: 2, 21: 1, 14: 4, 8: 10, 9: 1}","[8, 9, 14, 19, 21]",81091144192211,K2Sc1Si4O10F1
K2EuSi4O10F,mp-1198799,0.09809999999999997,0.7383694,0.0,icsd-192485,"{19: 2, 63: 1, 14: 4, 8: 10, 9: 1}","[8, 9, 14, 19, 63]",81091144192631,K2Eu1Si4O10F1
Rb2ScSi4O10F,mp-1198458,5.0158000000000005,5.4683012,0.0,icsd-427788,"{37: 2, 21: 1, 14: 4, 8: 10, 9: 1}","[8, 9, 14, 21, 37]",81091144211372,Rb2Sc1Si4O10F1
Rb2LuSi4O10F,mp-1196570,4.927899999999999,5.15637653,0.0,icsd-190953,"{37: 2, 71: 1, 14: 4, 8: 10, 9: 1}","[8, 9, 14, 37, 71]",81091144372711,Rb2Lu1Si4O10F1
Cs2YSi4O10F,mp-581114,4.8312,0.52836621,0.0,icsd-416549,"{55: 2, 39: 1, 14: 4, 8: 10, 9: 1}","[8, 9, 14, 39, 55]",81091144391552,Cs2Y1Si4O10F1
Cs2ErSi4O10F,mp-1196674,4.809,0.42642972,0.0,icsd-430321,"{55: 2, 68: 1, 14: 4, 8: 10, 9: 1}","[8, 9, 14, 55, 68]",81091144552681,Cs2Er1Si4O10F1
Rb3Sc2Si4(O2F)5,mp-1196025,5.195399999999999,-0.21678969,0.0,icsd-422760,"{37: 3, 21: 2, 14: 4, 8: 10, 9: 5}","[8, 9, 14, 21, 37]",81095144212373,Rb3Sc2Si4O10F5
Na2ZrSi4O11,mp-6824,4.5794999999999995,1.20929443,0.0,icsd-6268,"{11: 2, 40: 1, 14: 4, 8: 11}","[8, 11, 14, 40]",811112144401,Na2Zr1Si4O11
FeSiP3O11,mp-541929,2.4113,0.85729659,0.0,icsd-88767,"{26: 1, 14: 1, 15: 3, 8: 11}","[8, 14, 15, 26]",811141153261,Fe1Si1P3O11
SiMoP3O11,mp-581326,4.337300000000001,1.76829406,0.0,icsd-202450,"{14: 1, 42: 1, 15: 3, 8: 11}","[8, 14, 15, 42]",811141153421,Si1Mo1P3O11
Ca2Si3Pb3O11,mp-1214269,3.2434,2.64062383,0.0,pf-36937,"{20: 2, 14: 3, 82: 3, 8: 11}","[8, 14, 20, 82]",811143202823,Ca2Si3Pb3O11
Ca3SiO,mp-1205330,0.05659999999999954,4.52800451,0.0,icsd-413382,"{20: 3, 14: 1, 8: 1}","[8, 14, 20]",81141203,Ca3Si1O1
Sr3SiO,mp-30949,0.4234,3.46920082,0.0,icsd-413384,"{38: 3, 14: 1, 8: 1}","[8, 14, 38]",81141383,Sr3Si1O1
K6Si2S6O,mp-555596,3.1497,0.70722331,0.0,icsd-73996,"{19: 6, 14: 2, 16: 6, 8: 1}","[8, 14, 16, 19]",81142166196,K6Si2S6O1
KNa2Ga3(SiO4)3,mp-1211711,3.9631999999999996,4.33059725,0.0,pf-8302,"{19: 1, 11: 2, 31: 3, 14: 3, 8: 12}","[8, 11, 14, 19, 31]",812112143191313,K1Na2Ga3Si3O12
Na4Ga3Si3ClO12,mp-23656,4.1073,-0.58860908,0.0,icsd-417705,"{11: 4, 31: 3, 14: 3, 17: 1, 8: 12}","[8, 11, 14, 17, 31]",812114143171313,Na4Ga3Si3Cl1O12
Na4Ga3Si3BrO12,mp-23659,4.0513,-0.62206798,0.0,icsd-56501,"{11: 4, 31: 3, 14: 3, 35: 1, 8: 12}","[8, 11, 14, 31, 35]",812114143313351,Na4Ga3Si3Br1O12
Na4Zr2(SiO4)3,mp-6150,4.321199999999999,1.33753023,0.0,icsd-15546,"{11: 4, 40: 2, 14: 3, 8: 12}","[8, 11, 14, 40]",812114143402,Na4Zr2Si3O12
CaMn6SiO12,mp-558986,0.5927000000000002,3.41020353,0.0,icsd-28423,"{20: 1, 25: 6, 14: 1, 8: 12}","[8, 14, 20, 25]",812141201256,Ca1Mn6Si1O12
Mn7SiO12,mp-3224,0.25669999999999993,3.71644267,0.0,icsd-71793,"{25: 7, 14: 1, 8: 12}","[8, 14, 25]",812141257,Mn7Si1O12
Ca2Zn3Si3PbO12,mp-1200437,3.7221,5.591253,0.0,icsd-168082,"{20: 2, 30: 3, 14: 3, 82: 1, 8: 12}","[8, 14, 20, 30, 82]",812143202303821,Ca2Zn3Si3Pb1O12
Ca3Sc2(SiO4)3,mp-6255,4.1025,2.83479667,0.0,icsd-27389,"{20: 3, 21: 2, 14: 3, 8: 12}","[8, 14, 20, 21]",812143203212,Ca3Sc2Si3O12
Ca3V2(SiO4)3,mp-1163934,1.8973000000000004,4.30915376,0.0,icsd-182068,"{20: 3, 23: 2, 14: 3, 8: 12}","[8, 14, 20, 23]",812143203232,Ca3V2Si3O12
Ca3Cr2(SiO4)3,mp-6414,3.0111,3.46869365,0.0,icsd-158537,"{20: 3, 24: 2, 14: 3, 8: 12}","[8, 14, 20, 24]",812143203242,Ca3Cr2Si3O12
Ca3Fe2(SiO4)3,mp-6672,2.3832999999999998,3.25305958,0.0,icsd-187907,"{20: 3, 26: 2, 14: 3, 8: 12}","[8, 14, 20, 26]",812143203262,Ca3Fe2Si3O12
Si3(BiO3)4,mp-23331,3.8978999999999995,3.34730949,0.0,icsd-402349,"{14: 3, 83: 4, 8: 12}","[8, 14, 83]",812143834,Si3Bi4O12
Rb2YGa(SiO3)4,mp-555230,4.2360999999999995,0.70039624,0.0,icsd-173279,"{37: 2, 39: 1, 31: 1, 14: 4, 8: 12}","[8, 14, 31, 37, 39]",812144311372391,Rb2Y1Ga1Si4O12
Rb2GdGa(SiO3)4,mp-555485,3.3463,0.71100929,0.0,icsd-173281,"{37: 2, 64: 1, 31: 1, 14: 4, 8: 12}","[8, 14, 31, 37, 64]",812144311372641,Rb2Gd1Ga1Si4O12
Rb2TbGa(SiO3)4,mp-558318,4.0952,0.66649033,0.0,icsd-173282,"{37: 2, 65: 1, 31: 1, 14: 4, 8: 12}","[8, 14, 31, 37, 65]",812144311372651,Rb2Tb1Ga1Si4O12
Rb2U(SiO3)4,mp-555974,2.5082999999999998,0.85548868,0.0,icsd-170960,"{37: 2, 92: 1, 14: 4, 8: 12}","[8, 14, 37, 92]",812144372921,Rb2U1Si4O12
Rb2MnSi5O12,mp-1195883,3.1643,1.56422477,0.0,icsd-252182,"{37: 2, 25: 1, 14: 5, 8: 12}","[8, 14, 25, 37]",812145251372,Rb2Mn1Si5O12
Cs2MnSi5O12,mp-15126,2.4585,3.23695012,0.0,icsd-81632,"{55: 2, 25: 1, 14: 5, 8: 12}","[8, 14, 25, 55]",812145251552,Cs2Mn1Si5O12
Rb2CdSi5O12,mp-15125,3.7913,0.20843633,0.0,icsd-81631,"{37: 2, 48: 1, 14: 5, 8: 12}","[8, 14, 37, 48]",812145372481,Rb2Cd1Si5O12
Tl4Si5O12,mp-1201442,3.1736,5.24889115,0.0,icsd-250712,"{81: 4, 14: 5, 8: 12}","[8, 14, 81]",812145814,Tl4Si5O12
Eu5Si3O12F,mp-558207,0.0,2.81043888,0.0,icsd-391122,"{63: 5, 14: 3, 8: 12, 9: 1}","[8, 9, 14, 63]",81291143635,Eu5Si3O12F1
Na4Sc2Si4O13,mp-555825,4.6001,2.12464626,0.0,icsd-200808,"{11: 4, 21: 2, 14: 4, 8: 13}","[8, 11, 14, 21]",813114144212,Na4Sc2Si4O13
Na5Ti2Si2PO13,mp-18271,2.5262000000000002,1.95112749,0.0,icsd-34069,"{11: 5, 22: 2, 14: 2, 15: 1, 8: 13}","[8, 11, 14, 15, 22]",813115142151222,Na5Ti2Si2P1O13
Rb2SiP4O13,mp-557355,5.166600000000001,0.54101469,0.0,icsd-41355,"{37: 2, 14: 1, 15: 4, 8: 13}","[8, 14, 15, 37]",813141154372,Rb2Si1P4O13
K3Ta3Si2O13,mp-16855,2.9726,1.3069556,0.0,icsd-15937,"{19: 3, 73: 3, 14: 2, 8: 13}","[8, 14, 19, 73]",813142193733,K3Ta3Si2O13
K3U3Si2O13,mp-558320,0.5497000000000005,4.15229585,0.0,icsd-249677,"{19: 3, 92: 3, 14: 2, 8: 13}","[8, 14, 19, 92]",813142193923,K3U3Si2O13
Ba2Nd2Si4O13,mp-561462,5.046200000000001,2.28117273,0.0,icsd-63514,"{56: 2, 60: 2, 14: 4, 8: 13}","[8, 14, 56, 60]",813144562602,Ba2Nd2Si4O13
Ba2Gd2Si4O13,mp-1202971,0.12249999999999961,3.00207531,0.0,icsd-260737,"{56: 2, 64: 2, 14: 4, 8: 13}","[8, 14, 56, 64]",813144562642,Ba2Gd2Si4O13
K5Y2Si4O13F,mp-1195556,4.347499999999999,5.25165121,0.0,icsd-429093,"{19: 5, 39: 2, 14: 4, 8: 13, 9: 1}","[8, 9, 14, 19, 39]",81391144195392,K5Y2Si4O13F1
K5Eu2Si4O13F,mp-605935,0.0,0.54152715,0.0,icsd-249458,"{19: 5, 63: 2, 14: 4, 8: 13, 9: 1}","[8, 9, 14, 19, 63]",81391144195632,K5Eu2Si4O13F1
NaNd(Si3O7)2,mp-560226,4.7954,1.29527513,0.0,icsd-23020,"{11: 1, 60: 1, 14: 6, 8: 14}","[8, 11, 14, 60]",814111146601,Na1Nd1Si6O14
Co2Si(P2O7)2,mp-17775,0.0,3.1252662,0.0,icsd-82403,"{27: 2, 14: 1, 15: 4, 8: 14}","[8, 14, 15, 27]",814141154272,Co2Si1P4O14
Cd2Si(P2O7)2,mp-541108,4.0752,0.64470387,0.0,icsd-49918,"{48: 2, 14: 1, 15: 4, 8: 14}","[8, 14, 15, 48]",814141154482,Cd2Si1P4O14
Ca3TaGa3(SiO7)2,mp-6853,3.9122000000000003,1.73752658,0.0,icsd-380525,"{20: 3, 73: 1, 31: 3, 14: 2, 8: 14}","[8, 14, 20, 31, 73]",814142203313731,Ca3Ta1Ga3Si2O14
Ba3TaFe3(SiO7)2,mp-1190340,2.5099,1.51993514,0.0,icsd-429640,"{56: 3, 73: 1, 26: 3, 14: 2, 8: 14}","[8, 14, 26, 56, 73]",814142263563731,Ba3Ta1Fe3Si2O14
Sr3NbGa3(SiO7)2,mp-1208777,3.4242,1.23001114,0.0,icsd-181650,"{38: 3, 41: 1, 31: 3, 14: 2, 8: 14}","[8, 14, 31, 38, 41]",814142313383411,Sr3Nb1Ga3Si2O14
Sr3TaGa3(SiO7)2,mp-16136,3.8537999999999997,1.35885363,0.0,icsd-91779,"{38: 3, 73: 1, 31: 3, 14: 2, 8: 14}","[8, 14, 31, 38, 73]",814142313383731,Sr3Ta1Ga3Si2O14
Ba3NbGa3(SiO7)2,mp-12881,3.2958,1.17457427,0.0,icsd-154215,"{56: 3, 41: 1, 31: 3, 14: 2, 8: 14}","[8, 14, 31, 41, 56]",814142313411563,Ba3Nb1Ga3Si2O14
Cs2KU2(Si2O7)2,mp-862811,0.0,4.83837223,0.0,icsd-249936,"{55: 2, 19: 1, 92: 2, 14: 4, 8: 14}","[8, 14, 19, 55, 92]",814144191552922,Cs2K1U2Si4O14
K4CaU(Si2O7)2,mp-1195727,2.0738000000000003,3.04128867,0.0,icsd-429329,"{19: 4, 20: 1, 92: 1, 14: 4, 8: 14}","[8, 14, 19, 20, 92]",814144194201921,K4Ca1U1Si4O14
Ba6Na2Si4O15,mp-560889,4.1718,1.97133574,0.0,icsd-62912,"{56: 6, 11: 2, 14: 4, 8: 15}","[8, 11, 14, 56]",815112144566,Ba6Na2Si4O15
KNa2Y(Si2O5)3,mp-555155,4.8143,0.93837757,0.0,icsd-97289,"{19: 1, 11: 2, 39: 1, 14: 6, 8: 15}","[8, 11, 14, 19, 39]",815112146191391,K1Na2Y1Si6O15
K4Na2(Si2O5)3,mp-542686,4.1851,4.59480017,0.0,icsd-170786,"{19: 4, 11: 2, 14: 6, 8: 15}","[8, 11, 14, 19]",815112146194,K4Na2Si6O15
Na3Dy(Si2O5)3,mp-555604,4.507000000000001,0.85526389,0.0,icsd-150469,"{11: 3, 66: 1, 14: 6, 8: 15}","[8, 11, 14, 66]",815113146661,Na3Dy1Si6O15
Y2SiP4O15,mp-1020615,5.5755,0.21528426,0.0,icsd-185335,"{39: 2, 14: 1, 15: 4, 8: 15}","[8, 14, 15, 39]",815141154392,Y2Si1P4O15
ReSi2(PO5)3,mp-1197149,2.1158,2.38759615,0.0,icsd-422408,"{75: 1, 14: 2, 15: 3, 8: 15}","[8, 14, 15, 75]",815142153751,Re1Si2P3O15
Zn2Si3Pb4SO15,mp-559184,3.4961000000000007,2.7070767,0.0,icsd-100296,"{30: 2, 14: 3, 82: 4, 16: 1, 8: 15}","[8, 14, 16, 30, 82]",815143161302824,Zn2Si3Pb4S1O15
K2Si6GeO15,mp-18460,4.7946,1.11946265,0.0,icsd-39553,"{19: 2, 14: 6, 32: 1, 8: 15}","[8, 14, 19, 32]",815146192321,K2Si6Ge1O15
K2Ce(Si2O5)3,mp-557649,1.9442,0.88846588,0.0,icsd-200077,"{19: 2, 58: 1, 14: 6, 8: 15}","[8, 14, 19, 58]",815146192581,K2Ce1Si6O15
K3Nd(Si2O5)3,mp-6453,4.1358,0.10307523,0.0,icsd-200161,"{19: 3, 60: 1, 14: 6, 8: 15}","[8, 14, 19, 60]",815146193601,K3Nd1Si6O15
Rb2Ti(Si2O5)3,mp-18582,3.4852999999999996,0.88850853,0.0,icsd-93568,"{37: 2, 22: 1, 14: 6, 8: 15}","[8, 14, 22, 37]",815146221372,Rb2Ti1Si6O15
Cs2Ti(Si2O5)3,mp-6748,3.5085,1.10699477,0.0,icsd-89988,"{55: 2, 22: 1, 14: 6, 8: 15}","[8, 14, 22, 55]",815146221552,Cs2Ti1Si6O15
Rb2Th(Si2O5)3,mp-1194623,4.8855,0.57950694,0.0,icsd-429571,"{37: 2, 90: 1, 14: 6, 8: 15}","[8, 14, 37, 90]",815146372901,Rb2Th1Si6O15
Rb2U(Si2O5)3,mp-1195621,0.5691999999999995,4.57695856,0.0,icsd-238556,"{37: 2, 92: 1, 14: 6, 8: 15}","[8, 14, 37, 92]",815146372921,Rb2U1Si6O15
Cs2Zr(Si2O5)3,mp-581877,4.946899999999999,0.89240884,0.0,icsd-81440,"{55: 2, 40: 1, 14: 6, 8: 15}","[8, 14, 40, 55]",815146401552,Cs2Zr1Si6O15
Cs2Th(Si2O5)3,mp-1195679,4.7961,0.35585162,0.0,icsd-429568,"{55: 2, 90: 1, 14: 6, 8: 15}","[8, 14, 55, 90]",815146552901,Cs2Th1Si6O15
Cs2U(Si2O5)3,mp-1197866,0.2707999999999995,4.66286788,0.0,icsd-261645,"{55: 2, 92: 1, 14: 6, 8: 15}","[8, 14, 55, 92]",815146552921,Cs2U1Si6O15
Na2Ca4YZrSi4(O5F)3,mp-1210816,4.6913,6.04675273,0.0,pf-4010,"{11: 2, 20: 4, 39: 1, 40: 1, 14: 4, 8: 15, 9: 3}","[8, 9, 11, 14, 20, 39, 40]",81593112144204391401,Na2Ca4Y1Zr1Si4O15F3
KSr6Sc(SiO4)4,mp-1211967,4.2940000000000005,2.24394699,0.0,pf-23779,"{19: 1, 38: 6, 21: 1, 14: 4, 8: 16}","[8, 14, 19, 21, 38]",816144191211386,K1Sr6Sc1Si4O16
Na5Pr4Si4O16F,mp-1192370,4.466,1.78309307,0.0,icsd-429323,"{11: 5, 59: 4, 14: 4, 8: 16, 9: 1}","[8, 9, 11, 14, 59]",81691115144594,Na5Pr4Si4O16F1
Na5Nd4Si4O16F,mp-1192521,4.518,1.76037873,0.0,icsd-429322,"{11: 5, 60: 4, 14: 4, 8: 16, 9: 1}","[8, 9, 11, 14, 60]",81691115144604,Na5Nd4Si4O16F1
Na5Sm4Si4O16F,mp-1192338,4.6397,1.7944873,0.0,icsd-429321,"{11: 5, 62: 4, 14: 4, 8: 16, 9: 1}","[8, 9, 11, 14, 62]",81691115144624,Na5Sm4Si4O16F1
Na5Gd4Si4O16F,mp-1192390,3.1472,1.98482808,0.0,icsd-429319,"{11: 5, 64: 4, 14: 4, 8: 16, 9: 1}","[8, 9, 11, 14, 64]",81691115144644,Na5Gd4Si4O16F1
Na5Tb4Si4O16F,mp-1192492,4.705900000000001,1.95408055,0.0,icsd-429325,"{11: 5, 65: 4, 14: 4, 8: 16, 9: 1}","[8, 9, 11, 14, 65]",81691115144654,Na5Tb4Si4O16F1
Na5Dy4Si4O16F,mp-1192543,4.7514,1.99448762,0.0,icsd-429318,"{11: 5, 66: 4, 14: 4, 8: 16, 9: 1}","[8, 9, 11, 14, 66]",81691115144664,Na5Dy4Si4O16F1
Na5Ho4Si4O16F,mp-1192403,4.7593,1.92870821,0.0,icsd-429317,"{11: 5, 67: 4, 14: 4, 8: 16, 9: 1}","[8, 9, 11, 14, 67]",81691115144674,Na5Ho4Si4O16F1
Na5Er4Si4O16F,mp-1192584,4.7932999999999995,2.02544801,0.0,icsd-429316,"{11: 5, 68: 4, 14: 4, 8: 16, 9: 1}","[8, 9, 11, 14, 68]",81691115144684,Na5Er4Si4O16F1
Na5Tm4Si4O16F,mp-1192572,4.800599999999999,2.0591387,0.0,icsd-429315,"{11: 5, 69: 4, 14: 4, 8: 16, 9: 1}","[8, 9, 11, 14, 69]",81691115144694,Na5Tm4Si4O16F1
K5La4Si4O16F,mp-866662,4.6591000000000005,3.05301803,0.0,icsd-380466,"{19: 5, 57: 4, 14: 4, 8: 16, 9: 1}","[8, 9, 14, 19, 57]",81691144195574,K5La4Si4O16F1
K5Pr4Si4O16F,mp-1192490,5.0432999999999995,1.73140139,0.0,icsd-429324,"{19: 5, 59: 4, 14: 4, 8: 16, 9: 1}","[8, 9, 14, 19, 59]",81691144195594,K5Pr4Si4O16F1
Na4CaZr2TiSi4(O8F)2,mp-1210416,3.3247,1.45290324,0.0,pf-22551,"{11: 4, 20: 1, 40: 2, 22: 1, 14: 4, 8: 16, 9: 2}","[8, 9, 11, 14, 20, 22, 40]",81692114144201221402,Na4Ca1Zr2Ti1Si4O16F2
Na4Zr2TiMnSi4(O8F)2,mp-1210325,2.4338,4.72006039,0.0,pf-2575,"{11: 4, 40: 2, 22: 1, 25: 1, 14: 4, 8: 16, 9: 2}","[8, 9, 11, 14, 22, 25, 40]",81692114144221251402,Na4Zr2Ti1Mn1Si4O16F2
Na3SrLaZnSi6O17,mp-13726,4.516100000000001,1.78833134,0.0,icsd-15179,"{11: 3, 38: 1, 57: 1, 30: 1, 14: 6, 8: 17}","[8, 11, 14, 30, 38, 57]",817113146301381571,Na3Sr1La1Zn1Si6O17
Rb14Si10O17,mp-680306,1.4386,1.99267113,0.0,icsd-411971,"{37: 14, 14: 10, 8: 17}","[8, 14, 37]",81714103714,Rb14Si10O17
Cs4U3Si4O17,mp-1192638,0.0235000000000003,4.83328239,0.0,icsd-263039,"{55: 4, 92: 3, 14: 4, 8: 17}","[8, 14, 55, 92]",817144554923,Cs4U3Si4O17
BaHo4Si5O17,mp-1195686,4.7703999999999995,1.79039786,0.0,icsd-429621,"{56: 1, 67: 4, 14: 5, 8: 17}","[8, 14, 56, 67]",817145561674,Ba1Ho4Si5O17
BaEr4Si5O17,mp-1195598,4.782,1.80241387,0.0,icsd-429620,"{56: 1, 68: 4, 14: 5, 8: 17}","[8, 14, 56, 68]",817145561684,Ba1Er4Si5O17
Rb14Si6Ge4O17,mp-680314,1.1925000000000001,3.08979477,0.0,icsd-411972,"{37: 14, 14: 6, 32: 4, 8: 17}","[8, 14, 32, 37]",8171463243714,Rb14Si6Ge4O17
K3NdSi7O17,mp-559608,4.713500000000001,0.7123041,0.0,icsd-280402,"{19: 3, 60: 1, 14: 7, 8: 17}","[8, 14, 19, 60]",817147193601,K3Nd1Si7O17
Na2Ca4ZrNbSi4O17F,mp-6903,3.5435000000000003,1.68286406,0.0,icsd-34070,"{11: 2, 20: 4, 40: 1, 41: 1, 14: 4, 8: 17, 9: 1}","[8, 9, 11, 14, 20, 40, 41]",81791112144204401411,Na2Ca4Zr1Nb1Si4O17F1
Pr5Si2Se3O17F,mp-1194712,3.9696,2.16322414,0.0,icsd-423518,"{59: 5, 14: 2, 34: 3, 8: 17, 9: 1}","[8, 9, 14, 34, 59]",81791142343595,Pr5Si2Se3O17F1
Ca7NbSi4O17F,mp-542863,3.6724,1.91916202,0.0,icsd-31269,"{20: 7, 41: 1, 14: 4, 8: 17, 9: 1}","[8, 9, 14, 20, 41]",81791144207411,Ca7Nb1Si4O17F1
Na8Si6SnO18,mp-560597,3.8106,1.83427239,0.0,icsd-20804,"{11: 8, 14: 6, 50: 1, 8: 18}","[8, 11, 14, 50]",818118146501,Na8Si6Sn1O18
BaNb10SiO19,mp-555764,0.014800000000000146,4.74705294,0.0,icsd-80591,"{56: 1, 41: 10, 14: 1, 8: 19}","[8, 14, 41, 56]",8191414110561,Ba1Nb10Si1O19
Cs2Cu2Si8O19,mp-556177,0.7552000000000001,2.26444925,0.0,icsd-32656,"{55: 2, 29: 2, 14: 8, 8: 19}","[8, 14, 29, 55]",819148292552,Cs2Cu2Si8O19
Ba3NaY3(Si3O10)2,mp-1019523,4.7986,1.35122123,0.0,icsd-430118,"{56: 3, 11: 1, 39: 3, 14: 6, 8: 20}","[8, 11, 14, 39, 56]",820111146393563,Ba3Na1Y3Si6O20
Ba3NaNd3(Si3O10)2,mp-559502,4.346500000000001,1.23257642,0.0,icsd-20643,"{56: 3, 11: 1, 60: 3, 14: 6, 8: 20}","[8, 11, 14, 56, 60]",820111146563603,Ba3Na1Nd3Si6O20
Ba3NaSm3(Si3O10)2,mp-1195058,4.63,1.22975015,0.0,icsd-430117,"{56: 3, 11: 1, 62: 3, 14: 6, 8: 20}","[8, 11, 14, 56, 62]",820111146563623,Ba3Na1Sm3Si6O20
Ba3NaGd3(Si3O10)2,mp-1194728,3.3773,4.64337526,0.0,icsd-430115,"{56: 3, 11: 1, 64: 3, 14: 6, 8: 20}","[8, 11, 14, 56, 64]",820111146563643,Ba3Na1Gd3Si6O20
Na2TiFe5(Si3O10)2,mp-557596,2.3046,3.71186171,0.0,icsd-15283,"{11: 2, 22: 1, 26: 5, 14: 6, 8: 20}","[8, 11, 14, 22, 26]",820112146221265,Na2Ti1Fe5Si6O20
Ba3Zn6Si4TeO20,mp-543034,2.6456000000000004,2.09808277,0.0,icsd-416231,"{56: 3, 30: 6, 14: 4, 52: 1, 8: 20}","[8, 14, 30, 52, 56]",820144306521563,Ba3Zn6Si4Te1O20
Rb6NaU3Si4O20F,mp-1197419,2.1473999999999998,2.95680153,0.0,icsd-249903,"{37: 6, 11: 1, 92: 3, 14: 4, 8: 20, 9: 1}","[8, 9, 11, 14, 37, 92]",82091111144376923,Rb6Na1U3Si4O20F1
Cs4K3U3Si4O20F,mp-1200353,2.1139,3.23220125,0.0,icsd-249902,"{55: 4, 19: 3, 92: 3, 14: 4, 8: 20, 9: 1}","[8, 9, 14, 19, 55, 92]",82091144193554923,Cs4K3U3Si4O20F1
Na9U3Si4(O10F)2,mp-1204232,0.0,3.72140362,0.0,icsd-237317,"{11: 9, 92: 3, 14: 4, 8: 20, 9: 2}","[8, 9, 11, 14, 92]",82092119144923,Na9U3Si4O20F2
Na2Si(S2O7)3,mp-1020159,5.1302,-1.20864833,0.0,icsd-422034,"{11: 2, 14: 1, 16: 6, 8: 21}","[8, 11, 14, 16]",821112141166,Na2Si1S6O21
K2Si(S2O7)3,mp-1019785,5.0725,-0.71292596,0.0,icsd-422491,"{19: 2, 14: 1, 16: 6, 8: 21}","[8, 14, 16, 19]",821141166192,K2Si1S6O21
Rb2Si(S2O7)3,mp-1020711,5.0347,-0.96277794,0.0,icsd-422501,"{37: 2, 14: 1, 16: 6, 8: 21}","[8, 14, 16, 37]",821141166372,Rb2Si1S6O21
SiAg2(S2O7)3,mp-1198966,3.5310999999999995,0.74643408,0.0,icsd-422487,"{14: 1, 47: 2, 16: 6, 8: 21}","[8, 14, 16, 47]",821141166472,Si1Ag2S6O21