formula,material_id,band_gap,efermi,energy_above_hull,database_IDs,comp_atoms,sorted_keys_comp_atoms,comp_number,new_formula
CsSi2SbO7,mp-581955,3.2270999999999996,4.59119577,0.0,icsd-66535,"{55: 1, 14: 2, 51: 1, 8: 7}","[8, 14, 51, 55]",87142511551,Cs1Si2Sb1O7
Cs6Si2O7,mp-18315,3.1666999999999996,1.96306566,0.0,icsd-411665,"{55: 6, 14: 2, 8: 7}","[8, 14, 55]",87142556,Cs6Si2O7
La2Si2O7,mp-5732,4.781899999999999,3.45976349,0.0,icsd-71807,"{57: 2, 14: 2, 8: 7}","[8, 14, 57]",87142572,La2Si2O7
Ce2Si2O7,mp-662527,0.07010000000000005,6.61626686,0.0,icsd-78379,"{58: 2, 14: 2, 8: 7}","[8, 14, 58]",87142582,Ce2Si2O7
Pr2Si2O7,mp-5913,5.1705,1.64793971,0.0,icsd-24890,"{59: 2, 14: 2, 8: 7}","[8, 14, 59]",87142592,Pr2Si2O7
Nd2Si2O7,mp-15225,4.8256000000000006,2.71295961,0.0,icsd-84365,"{60: 2, 14: 2, 8: 7}","[8, 14, 60]",87142602,Nd2Si2O7
Sm2Si2O7,mp-17235,5.105700000000001,1.57058399,0.0,icsd-84241,"{62: 2, 14: 2, 8: 7}","[8, 14, 62]",87142622,Sm2Si2O7
Tb2Si2O7,mp-17308,4.6357,2.89087803,0.0,icsd-98724,"{65: 2, 14: 2, 8: 7}","[8, 14, 65]",87142652,Tb2Si2O7
Er2Si2O7,mp-7064,4.7985999999999995,1.82361874,0.0,icsd-86148,"{68: 2, 14: 2, 8: 7}","[8, 14, 68]",87142682,Er2Si2O7
Tm2Si2O7,mp-1095467,4.7966999999999995,1.86432587,0.0,icsd-248719,"{69: 2, 14: 2, 8: 7}","[8, 14, 69]",87142692,Tm2Si2O7
Lu2Si2O7,mp-7193,4.8449,1.8699164,0.0,icsd-412249,"{71: 2, 14: 2, 8: 7}","[8, 14, 71]",87142712,Lu2Si2O7
Si2Hg6O7,mp-28712,1.5122,0.90127674,0.0,icsd-69123,"{14: 2, 80: 6, 8: 7}","[8, 14, 80]",87142806,Si2Hg6O7
Tl6Si2O7,mp-27228,1.5876000000000001,2.55804904,0.0,icsd-4230,"{81: 6, 14: 2, 8: 7}","[8, 14, 81]",87142816,Tl6Si2O7
Si2Pb3O7,mp-21767,2.6294,3.76560468,0.0,icsd-15371,"{14: 2, 82: 3, 8: 7}","[8, 14, 82]",87142823,Si2Pb3O7
Na2CaZrSi2O7F2,mp-1210579,4.6892,5.54860033,0.0,pf-26384,"{11: 2, 20: 1, 40: 1, 14: 2, 8: 7, 9: 2}","[8, 9, 11, 14, 20, 40]",8792112142201401,Na2Ca1Zr1Si2O7F2
Ca4Si2O7F2,mp-560163,4.5611999999999995,1.46834098,0.0,icsd-64710,"{20: 4, 14: 2, 8: 7, 9: 2}","[8, 9, 14, 20]",8792142204,Ca4Si2O7F2
Na2Zn3(SiO4)2,mp-555300,2.7950999999999997,0.85596393,0.0,icsd-4339,"{11: 2, 30: 3, 14: 2, 8: 8}","[8, 11, 14, 30]",88112142303,Na2Zn3Si2O8
SiAg6SO8,mp-555015,0.0,2.22340083,0.0,icsd-6225,"{14: 1, 47: 6, 16: 1, 8: 8}","[8, 14, 16, 47]",88141161476,Si1Ag6S1O8
Pr3Si2ClO8,mp-554826,4.824999999999999,2.23458396,0.0,icsd-81230,"{59: 3, 14: 2, 17: 1, 8: 8}","[8, 14, 17, 59]",88142171593,Pr3Si2Cl1O8
Nd3Si2ClO8,mp-559764,4.3816,2.24378949,0.0,icsd-92491,"{60: 3, 14: 2, 17: 1, 8: 8}","[8, 14, 17, 60]",88142171603,Nd3Si2Cl1O8
Sm3Si2ClO8,mp-23622,4.4572,2.21827676,0.0,icsd-89600,"{62: 3, 14: 2, 17: 1, 8: 8}","[8, 14, 17, 62]",88142171623,Sm3Si2Cl1O8
Cs4K2Cu(SiO4)2,mp-628617,0.6454999999999997,2.41115446,0.0,icsd-92493,"{55: 4, 19: 2, 29: 1, 14: 2, 8: 8}","[8, 14, 19, 29, 55]",88142192291554,Cs4K2Cu1Si2O8
K6Cu(SiO4)2,mp-560675,0.5214999999999999,1.67083037,0.0,icsd-85404,"{19: 6, 29: 1, 14: 2, 8: 8}","[8, 14, 19, 29]",88142196291,K6Cu1Si2O8
Ba2Ti(SiO4)2,mp-6081,3.7274000000000003,1.45338154,0.0,icsd-15715,"{56: 2, 22: 1, 14: 2, 8: 8}","[8, 14, 22, 56]",88142221562,Ba2Ti1Si2O8
Ba2V(SiO4)2,mp-19179,2.6343,2.39014951,0.0,icsd-51479,"{56: 2, 23: 1, 14: 2, 8: 8}","[8, 14, 23, 56]",88142231562,Ba2V1Si2O8
SrGa2(SiO4)2,mp-14235,4.4647,0.71049871,0.0,icsd-34414,"{38: 1, 31: 2, 14: 2, 8: 8}","[8, 14, 31, 38]",88142312381,Sr1Ga2Si2O8
BaGa2(SiO4)2,mp-6759,4.0084,0.39800074,0.0,icsd-1444,"{56: 1, 31: 2, 14: 2, 8: 8}","[8, 14, 31, 56]",88142312561,Ba1Ga2Si2O8
Cs2U(SiO4)2,mp-581584,2.2215000000000003,3.24384304,0.0,icsd-170599,"{55: 2, 92: 1, 14: 2, 8: 8}","[8, 14, 55, 92]",88142552921,Cs2U1Si2O8
Cs4Si3O8,mp-1019713,3.6580000000000004,1.3601412,0.0,icsd-424961,"{55: 4, 14: 3, 8: 8}","[8, 14, 55]",88143554,Cs4Si3O8
Ba2Si3O8,mp-29222,4.5119,1.20459023,0.0,icsd-100310,"{56: 2, 14: 3, 8: 8}","[8, 14, 56]",88143562,Ba2Si3O8
NaCaTiMnSi2O8F,mp-1210293,2.4152,2.74717168,0.0,pf-25798,"{11: 1, 20: 1, 22: 1, 25: 1, 14: 2, 8: 8, 9: 1}","[8, 9, 11, 14, 20, 22, 25]",8891111142201221251,Na1Ca1Ti1Mn1Si2O8F1
Na2U2Si(O4F)2,mp-560638,1.75,1.14776401,0.0,icsd-89033,"{11: 2, 92: 2, 14: 1, 8: 8, 9: 2}","[8, 9, 11, 14, 92]",8892112141922,Na2U2Si1O8F2
Na2Ti2Si2O9,mp-5996,3.2630000000000003,2.10158719,0.0,icsd-20124,"{11: 2, 22: 2, 14: 2, 8: 9}","[8, 11, 14, 22]",89112142222,Na2Ti2Si2O9
Na3Y(SiO3)3,mp-1203085,4.2352,1.24492857,0.0,icsd-20774,"{11: 3, 39: 1, 14: 3, 8: 9}","[8, 11, 14, 39]",89113143391,Na3Y1Si3O9
Na3Tm(SiO3)3,mp-1195518,4.228,1.26041084,0.0,icsd-428147,"{11: 3, 69: 1, 14: 3, 8: 9}","[8, 11, 14, 69]",89113143691,Na3Tm1Si3O9
Ce2Ti2SiO9,mp-560000,0.0,6.78689282,0.0,icsd-410201,"{58: 2, 22: 2, 14: 1, 8: 9}","[8, 14, 22, 58]",89141222582,Ce2Ti2Si1O9
Ca3ZrSi2O9,mp-15004,4.1198999999999995,1.91382321,0.0,icsd-79453,"{20: 3, 40: 1, 14: 2, 8: 9}","[8, 14, 20, 40]",89142203401,Ca3Zr1Si2O9
Ca3Si2SnO9,mp-15095,3.5221,2.70560732,0.0,icsd-80466,"{20: 3, 14: 2, 50: 1, 8: 9}","[8, 14, 20, 50]",89142203501,Ca3Si2Sn1O9
Ca3HfSi2O9,mp-15003,4.678,2.04527561,0.0,icsd-79452,"{20: 3, 72: 1, 14: 2, 8: 9}","[8, 14, 20, 72]",89142203721,Ca3Hf1Si2O9
Ba2Mn2Si2O9,mp-558695,1.9934,1.92539766,0.0,icsd-409460,"{56: 2, 25: 2, 14: 2, 8: 9}","[8, 14, 25, 56]",89142252562,Ba2Mn2Si2O9
In2Si2Pb2O9,mp-542840,3.3467000000000002,3.77338598,0.0,icsd-40857,"{49: 2, 14: 2, 82: 2, 8: 9}","[8, 14, 49, 82]",89142492822,In2Si2Pb2O9
K2Zr(SiO3)3,mp-6600,4.813,0.85368116,0.0,icsd-171577,"{19: 2, 40: 1, 14: 3, 8: 9}","[8, 14, 19, 40]",89143192401,K2Zr1Si3O9
K4Ca(SiO3)3,mp-1202514,4.2765,1.16143639,0.0,icsd-246255,"{19: 4, 20: 1, 14: 3, 8: 9}","[8, 14, 19, 20]",89143194201,K4Ca1Si3O9
K4Sr(SiO3)3,mp-1203391,4.1688,0.97438422,0.0,icsd-240748,"{19: 4, 38: 1, 14: 3, 8: 9}","[8, 14, 19, 38]",89143194381,K4Sr1Si3O9
Rb2Ca2(SiO3)3,mp-1020641,4.133500000000001,0.76060159,0.0,icsd-430223,"{37: 2, 20: 2, 14: 3, 8: 9}","[8, 14, 20, 37]",89143202372,Rb2Ca2Si3O9
RbBaSc(SiO3)3,mp-1197457,4.9748,6.44475026,0.0,icsd-166999,"{37: 1, 56: 1, 21: 1, 14: 3, 8: 9}","[8, 14, 21, 37, 56]",89143211371561,Rb1Ba1Sc1Si3O9
BaTi(SiO3)3,mp-6661,3.0661000000000005,1.81895278,0.0,icsd-290227,"{56: 1, 22: 1, 14: 3, 8: 9}","[8, 14, 22, 56]",89143221561,Ba1Ti1Si3O9
Cs2Zr(SiO3)3,mp-6694,4.789899999999999,1.44091679,0.0,icsd-171578,"{55: 2, 40: 1, 14: 3, 8: 9}","[8, 14, 40, 55]",89143401552,Cs2Zr1Si3O9
BaZr(SiO3)3,mp-1214228,4.6556,5.84915459,0.0,pf-35749,"{56: 1, 40: 1, 14: 3, 8: 9}","[8, 14, 40, 56]",89143401561,Ba1Zr1Si3O9
Cs5Si3AgO9,mp-554842,2.6818,1.45806594,0.0,icsd-51508,"{55: 5, 14: 3, 47: 1, 8: 9}","[8, 14, 47, 55]",89143471555,Cs5Si3Ag1O9
Cs2Si3SnO9,mp-554359,3.7921,1.40271503,0.0,icsd-414425,"{55: 2, 14: 3, 50: 1, 8: 9}","[8, 14, 50, 55]",89143501552,Cs2Si3Sn1O9
BaSi3SnO9,mp-18502,3.7306000000000004,2.11450466,0.0,icsd-10385,"{56: 1, 14: 3, 50: 1, 8: 9}","[8, 14, 50, 56]",89143501561,Ba1Si3Sn1O9
BaHf(SiO3)3,mp-1194160,4.6887,1.47367833,0.0,icsd-183835,"{56: 1, 72: 1, 14: 3, 8: 9}","[8, 14, 56, 72]",89143561721,Ba1Hf1Si3O9
K2Si4O9,mp-558603,4.4376,0.18754519,0.0,icsd-2155,"{19: 2, 14: 4, 8: 9}","[8, 14, 19]",89144192,K2Si4O9
Cs10Si7O9,mp-581173,1.3593000000000002,2.63888534,0.0,icsd-411970,"{55: 10, 14: 7, 8: 9}","[8, 14, 55]",891475510,Cs10Si7O9
Na3Si3SnO9F,mp-560937,3.8391999999999995,1.08876065,0.0,icsd-171252,"{11: 3, 14: 3, 50: 1, 8: 9, 9: 1}","[8, 9, 11, 14, 50]",8991113143501,Na3Si3Sn1O9F1
Y4TiSi2(O3F2)3,mp-554376,2.7199,1.59122874,0.0,icsd-20003,"{39: 4, 22: 1, 14: 2, 8: 9, 9: 6}","[8, 9, 14, 22, 39]",8996142221394,Y4Ti1Si2O9F6
SiF4,mp-1818,7.7173,-4.95091498,0.0,icsd-24500,"{14: 1, 9: 4}","[9, 14]",94141,Si1F4
Na2SiF6,mp-3775,6.9951,-2.36359488,0.0,icsd-61274,"{11: 2, 14: 1, 9: 6}","[9, 11, 14]",96112141,Na2Si1F6
SiHg3(SF3)2,mp-555194,2.7984,-0.9798341,0.0,icsd-23605,"{14: 1, 80: 3, 16: 2, 9: 6}","[9, 14, 16, 80]",96141162803,Si1Hg3S2F6
K2SiF6,mp-13002,7.1895,-2.31813997,0.0,icsd-158483,"{19: 2, 14: 1, 9: 6}","[9, 14, 19]",96141192,K2Si1F6
Rb2SiF6,mp-10492,6.9955,-2.81537149,0.0,icsd-38547,"{37: 2, 14: 1, 9: 6}","[9, 14, 37]",96141372,Rb2Si1F6
Cs2SiF6,mp-4047,6.8901,-2.48760655,0.0,icsd-26871,"{55: 2, 14: 1, 9: 6}","[9, 14, 55]",96141552,Cs2Si1F6
BaSiF6,mp-5588,7.4159,-0.90705687,0.0,icsd-201510,"{56: 1, 14: 1, 9: 6}","[9, 14, 56]",96141561,Ba1Si1F6
Tl2SiF6,mp-5033,4.976,-0.55300711,0.0,icsd-52292,"{81: 2, 14: 1, 9: 6}","[9, 14, 81]",96141812,Tl2Si1F6
K3SiF7,mp-13859,5.9294,-1.37524607,0.0,icsd-23875,"{19: 3, 14: 1, 9: 7}","[9, 14, 19]",97141193,K3Si1F7
Cs3SiF7,mp-13748,5.633800000000001,-0.58839684,0.0,icsd-9588,"{55: 3, 14: 1, 9: 7}","[9, 14, 55]",97141553,Cs3Si1F7