formula,material_id,band_gap,efermi,energy_above_hull,database_IDs,comp_atoms,sorted_keys_comp_atoms,comp_number,new_formula
SiH10(O2F3)2,mp-722246,6.5957,-2.97113968,0.0,icsd-40388,"{14: 1, 1: 10, 8: 4, 9: 6}","[1, 8, 9, 14]",1108496141,Si1H10O4F6
NaSi,mp-2402,1.1286,2.33663347,0.0,icsd-174082,"{11: 1, 14: 1}","[11, 14]",111141,Na1Si1
NaSiAu3,mp-13673,0.0,4.79684638,0.0,icsd-16462,"{11: 1, 14: 1, 79: 3}","[11, 14, 79]",111141793,Na1Si1Au3
NaSi2Pd3,mp-4276,0.0,5.15923969,0.0,icsd-41686,"{11: 1, 14: 2, 46: 3}","[11, 14, 46]",111142463,Na1Si2Pd3
Rb7NaSi8,mp-1202504,1.6935,1.28995168,0.0,icsd-423306,"{37: 7, 11: 1, 14: 8}","[11, 14, 37]",111148377,Rb7Na1Si8
Cs7NaSi8,mp-1199908,1.5773000000000001,1.96441599,0.0,icsd-427635,"{55: 7, 11: 1, 14: 8}","[11, 14, 55]",111148557,Cs7Na1Si8
BaGaSiH,mp-1008506,0.47920000000000007,3.35288238,0.0,icsd-173572,"{56: 1, 31: 1, 14: 1, 1: 1}","[1, 14, 31, 56]",11141311561,Ba1Ga1Si1H1
CeSiHRu,mp-604496,0.0,7.62361403,0.0,icsd-161825,"{58: 1, 14: 1, 1: 1, 44: 1}","[1, 14, 44, 58]",11141441581,Ce1Si1H1Ru1
Y5Si3H,mp-1189066,0.0,4.84906166,0.0,icsd-638464,"{39: 5, 14: 3, 1: 1}","[1, 14, 39]",11143395,Y5Si3H1
Na2In2SiS6,mp-1190138,2.2375,1.81625948,0.0,icsd-239707,"{11: 2, 49: 2, 14: 1, 16: 6}","[11, 14, 16, 49]",112141166492,Na2In2Si1S6
Na2Si2S5,mp-18104,3.5318,1.45906198,0.0,icsd-66867,"{11: 2, 14: 2, 16: 5}","[11, 14, 16]",112142165,Na2Si2S5
Na2Si2Se5,mp-18562,2.4355,1.10121777,0.0,icsd-49001,"{11: 2, 14: 2, 34: 5}","[11, 14, 34]",112142345,Na2Si2Se5
SiH12C2(NF)6,mp-697253,5.1979,-1.16257277,0.0,icsd-59237,"{14: 1, 1: 12, 6: 2, 7: 6, 9: 6}","[1, 6, 7, 9, 14]",112627696141,Si1H12C2N6F6
K2Na3SiP3,mp-541694,0.8900999999999999,1.94149242,0.0,icsd-300203,"{19: 2, 11: 3, 14: 1, 15: 3}","[11, 14, 15, 19]",113141153192,K2Na3Si1P3
Na3SiSe4,mp-28303,1.7548000000000001,1.07745785,0.0,icsd-60118,"{11: 3, 14: 1, 34: 4}","[11, 14, 34]",113141344,Na3Si1Se4
Na3SiTe3,mp-17291,1.8159,2.31161599,0.0,icsd-15579,"{11: 3, 14: 1, 52: 3}","[11, 14, 52]",113141523,Na3Si1Te3
Na4SiSe4,mp-30931,2.1322,0.97346008,0.0,icsd-409726,"{11: 4, 14: 1, 34: 4}","[11, 14, 34]",114141344,Na4Si1Se4
Na4Si2Te5,mp-569337,1.8779000000000003,2.59968701,0.0,icsd-38049,"{11: 4, 14: 2, 52: 5}","[11, 14, 52]",114142525,Na4Si2Te5
NaBeSi3HO8,mp-556001,5.2827,1.90121543,0.0,icsd-160817,"{11: 1, 4: 1, 14: 3, 1: 1, 8: 8}","[1, 4, 8, 11, 14]",114188111143,Na1Be1Si3H1O8
SiH14(OF)6,mp-1209032,6.2972,3.38951448,0.0,pf-20843,"{14: 1, 1: 14, 8: 6, 9: 6}","[1, 8, 9, 14]",1148696141,Si1H14O6F6
Na5SiP3,mp-5929,1.1432000000000002,2.80266352,0.0,icsd-60077,"{11: 5, 14: 1, 15: 3}","[11, 14, 15]",115141153,Na5Si1P3
Na5SiAs3,mp-18139,1.0276999999999998,2.28241386,0.0,icsd-300188,"{11: 5, 14: 1, 33: 3}","[11, 14, 33]",115141333,Na5Si1As3
Na6Si2Se7,mp-16961,2.1551,1.01075453,0.0,icsd-300236,"{11: 6, 14: 2, 34: 7}","[11, 14, 34]",116142347,Na6Si2Se7
SiH17S3N5,mp-557080,3.344,0.1764319,0.0,icsd-420001,"{14: 1, 1: 17, 16: 3, 7: 5}","[1, 7, 14, 16]",11775141163,Si1H17S3N5
K2InSi4HO11,mp-775466,3.7414000000000005,1.07492053,0.0,icsd-281432,"{19: 2, 49: 1, 14: 4, 1: 1, 8: 11}","[1, 8, 14, 19, 49]",11811144192491,K2In1Si4H1O11
K2NaCa2TiSi7HO20,mp-720410,3.4517,4.58713428,0.0,icsd-10502,"{19: 2, 11: 1, 20: 2, 22: 1, 14: 7, 1: 1, 8: 20}","[1, 8, 11, 14, 19, 20, 22]",11820111147192202221,K2Na1Ca2Ti1Si7H1O20
KSiHO3,mp-707195,4.768199999999999,0.14661194,0.0,icsd-30892,"{19: 1, 14: 1, 1: 1, 8: 3}","[1, 8, 14, 19]",1183141191,K1Si1H1O3
NaCaSiHO4,mp-634418,4.4923,1.42958548,0.0,icsd-97911,"{11: 1, 20: 1, 14: 1, 1: 1, 8: 4}","[1, 8, 11, 14, 20]",1184111141201,Na1Ca1Si1H1O4
NaZnSiHO4,mp-699219,3.4269,0.67180708,0.0,icsd-88001,"{11: 1, 30: 1, 14: 1, 1: 1, 8: 4}","[1, 8, 11, 14, 30]",1184111141301,Na1Zn1Si1H1O4
Rb5SiHO5,mp-861513,2.5914,0.76175811,0.0,icsd-417054,"{37: 5, 14: 1, 1: 1, 8: 5}","[1, 8, 14, 37]",1185141375,Rb5Si1H1O5
KSi2HO5,mp-1203642,5.0122,-0.01856024,0.0,icsd-23516,"{19: 1, 14: 2, 1: 1, 8: 5}","[1, 8, 14, 19]",1185142191,K1Si2H1O5
NaCa2Si3HO9,mp-23792,4.848599999999999,1.6570081,0.0,icsd-34945,"{11: 1, 20: 2, 14: 3, 1: 1, 8: 9}","[1, 8, 11, 14, 20]",1189111143202,Na1Ca2Si3H1O9
Si2H2S3,mp-28090,3.3657,0.30073472,0.0,icsd-36379,"{14: 2, 1: 2, 16: 3}","[1, 14, 16]",12142163,Si2H2S3
Ca3Be2Si3(HO6)2,mp-699464,5.168799999999999,1.91987524,0.0,icsd-95362,"{20: 3, 4: 2, 14: 3, 1: 2, 8: 12}","[1, 4, 8, 14, 20]",1242812143203,Ca3Be2Si3H2O12
Be4Si2H2O9,mp-707304,5.7425,1.19105311,0.0,icsd-202360,"{4: 4, 14: 2, 1: 2, 8: 9}","[1, 4, 8, 14]",124489142,Be4Si2H2O9
NaMn2Si3BH2O11,mp-1197081,0.0,3.97583483,0.0,icsd-192916,"{11: 1, 25: 2, 14: 3, 5: 1, 1: 2, 8: 11}","[1, 5, 8, 11, 14, 25]",1251811111143252,Na1Mn2Si3B1H2O11
Mn4Si4SnB2(HO9)2,mp-726800,2.7959000000000005,2.98482616,0.0,icsd-84256,"{25: 4, 14: 4, 50: 1, 5: 2, 1: 2, 8: 18}","[1, 5, 8, 14, 25, 50]",1252818144254501,Mn4Si4Sn1B2H2O18
K2TiSi3(HO5)2,mp-758597,3.4247,0.45970922,0.0,icsd-280327,"{19: 2, 22: 1, 14: 3, 1: 2, 8: 10}","[1, 8, 14, 19, 22]",12810143192221,K2Ti1Si3H2O10
K2ZrSi3(HO5)2,mp-720643,4.9328,0.00920749,0.0,icsd-20152,"{19: 2, 40: 1, 14: 3, 1: 2, 8: 10}","[1, 8, 14, 19, 40]",12810143192401,K2Zr1Si3H2O10
K3TbSi3(HO5)2,mp-759928,4.603999999999999,0.42200301,0.0,icsd-413425,"{19: 3, 65: 1, 14: 3, 1: 2, 8: 10}","[1, 8, 14, 19, 65]",12810143193651,K3Tb1Si3H2O10
K3ErSi3(HO5)2,mp-758527,4.4098,0.37596064,0.0,icsd-413883,"{19: 3, 68: 1, 14: 3, 1: 2, 8: 10}","[1, 8, 14, 19, 68]",12810143193681,K3Er1Si3H2O10
Na3VSi4(HO6)2,mp-698046,2.2359000000000004,2.41500807,0.0,icsd-95685,"{11: 3, 23: 1, 14: 4, 1: 2, 8: 12}","[1, 8, 11, 14, 23]",12812113144231,Na3V1Si4H2O12
Cs2SiP4(HO7)2,mp-697078,5.1811,0.50364363,0.0,icsd-41356,"{55: 2, 14: 1, 15: 4, 1: 2, 8: 14}","[1, 8, 14, 15, 55]",12814141154552,Cs2Si1P4H2O14
BaSiP4(HO7)2,mp-722278,5.7482999999999995,1.16886783,0.0,icsd-41357,"{56: 1, 14: 1, 15: 4, 1: 2, 8: 14}","[1, 8, 14, 15, 56]",12814141154561,Ba1Si1P4H2O14
Ca2Ga2Si(HO4)2,mp-760729,3.5382,0.8370487,0.0,icsd-280478,"{20: 2, 31: 2, 14: 1, 1: 2, 8: 8}","[1, 8, 14, 20, 31]",1288141202312,Ca2Ga2Si1H2O8
KSiH3,mp-28695,2.5733,0.34475498,0.0,icsd-65954,"{19: 1, 14: 1, 1: 3}","[1, 14, 19]",13141191,K1Si1H3
SiH3I,mp-28538,4.2188,-1.20100397,0.0,icsd-65044,"{14: 1, 1: 3, 53: 1}","[1, 14, 53]",13141531,Si1H3I1
Zr5Si6H36C12(Br10O3)2,mp-1196506,2.1936999999999998,-1.26530714,0.0,icsd-245733,"{40: 5, 14: 6, 1: 36, 6: 12, 35: 20, 8: 6}","[1, 6, 8, 14, 35, 40]",136612861463520405,Zr5Si6H36C12Br20O6
Si,mp-149,0.6105,5.63019776,0.0,icsd-53782,{14: 1},[14],141,Si1
Sc5(Co2Si5)2,mp-542493,0.0,7.38961053,0.0,icsd-30519,"{21: 5, 27: 4, 14: 10}","[14, 21, 27]",1410215274,Sc5Co4Si10
Sc5(Si5Ir2)2,mp-1195748,0.0,7.69830583,0.0,icsd-640980,"{21: 5, 14: 10, 77: 4}","[14, 21, 77]",1410215774,Sc5Si10Ir4
Er5(Si5Ir2)2,mp-1195957,0.0,7.05217824,0.0,icsd-630722,"{68: 5, 14: 10, 77: 4}","[14, 68, 77]",1410685774,Er5Si10Ir4
Tm5(Si5Ir2)2,mp-1202399,0.0,7.07570077,0.0,icsd-641018,"{69: 5, 14: 10, 77: 4}","[14, 69, 77]",1410695774,Tm5Si10Ir4
Lu5(Si5Ir2)2,mp-542170,0.0,7.12388986,0.0,icsd-168655,"{71: 5, 14: 10, 77: 4}","[14, 71, 77]",1410715774,Lu5Si10Ir4
SiP,mp-2798,1.7395,3.50735638,0.0,icsd-23724,"{14: 1, 15: 1}","[14, 15]",141151,Si1P1
SiPAu,mp-1207095,1.0382000000000002,3.87555826,0.0,pf-31321,"{14: 1, 15: 1, 79: 1}","[14, 15, 79]",141151791,Si1P1Au1
SiP2,mp-9996,1.4262000000000001,3.4854361,0.0,icsd-43098,"{14: 1, 15: 2}","[14, 15]",141152,Si1P2
K2SiP2,mp-8235,1.2086999999999999,2.57292431,0.0,icsd-36367,"{19: 2, 14: 1, 15: 2}","[14, 15, 19]",141152192,K2Si1P2
ZnSiP2,mp-4763,1.3641000000000005,4.44458853,0.0,icsd-22190,"{30: 1, 14: 1, 15: 2}","[14, 15, 30]",141152301,Zn1Si1P2
Si(AgP)2,mp-1206152,0.16999999999999993,5.07151014,0.0,pf-20822,"{14: 1, 47: 2, 15: 2}","[14, 15, 47]",141152472,Si1Ag2P2
CdSiP2,mp-4666,1.4257,3.92531796,0.0,icsd-23696,"{48: 1, 14: 1, 15: 2}","[14, 15, 48]",141152481,Cd1Si1P2
Cs2SiP2,mp-8932,1.2699000000000003,3.18273867,0.0,icsd-71224,"{55: 2, 14: 1, 15: 2}","[14, 15, 55]",141152552,Cs2Si1P2
PrSiP3,mp-1200190,0.25680000000000014,5.42831137,0.0,icsd-601251,"{59: 1, 14: 1, 15: 3}","[14, 15, 59]",141153591,Pr1Si1P3
Ca4SiP4,mp-1214132,1.1988000000000003,4.02486017,0.0,pf-38784,"{20: 4, 14: 1, 15: 4}","[14, 15, 20]",141154204,Ca4Si1P4
Sr4SiP4,mp-1208796,1.3242999999999996,3.07403012,0.0,pf-28349,"{38: 4, 14: 1, 15: 4}","[14, 15, 38]",141154384,Sr4Si1P4
Ba4SiP4,mp-14214,1.0896000000000003,2.97488645,0.0,icsd-32559,"{56: 4, 14: 1, 15: 4}","[14, 15, 56]",141154564,Ba4Si1P4
Cu4SiP8,mp-28995,1.2078000000000007,6.44996917,0.0,icsd-78967,"{29: 4, 14: 1, 15: 8}","[14, 15, 29]",141158294,Cu4Si1P8
Ce3Si11Pt23,mp-568452,0.0,8.23155541,0.0,icsd-95229,"{58: 3, 14: 11, 78: 23}","[14, 58, 78]",14115837823,Ce3Si11Pt23
Pr3Si11Pt23,mp-1198014,0.0,7.61211716,0.0,icsd-187875,"{59: 3, 14: 11, 78: 23}","[14, 59, 78]",14115937823,Pr3Si11Pt23
Nd3Si11Pt23,mp-1196005,0.0,7.59593795,0.0,icsd-187876,"{60: 3, 14: 11, 78: 23}","[14, 60, 78]",14116037823,Nd3Si11Pt23
ZrSiS,mp-3938,0.0,7.6002603,0.0,icsd-15569,"{40: 1, 14: 1, 16: 1}","[14, 16, 40]",141161401,Zr1Si1S1
HfSiS,mp-7916,0.0,8.12019096,0.0,icsd-25735,"{72: 1, 14: 1, 16: 1}","[14, 16, 72]",141161721,Hf1Si1S1
ThSiS,mp-1077374,0.0,7.44694995,0.0,icsd-650891,"{90: 1, 14: 1, 16: 1}","[14, 16, 90]",141161901,Th1Si1S1
SiS2,mp-1602,3.1072,0.80820257,0.0,icsd-29112,"{14: 1, 16: 2}","[14, 16]",141162,Si1S2
Sm3Si11Pt23,mp-1194935,0.0,7.54335286,0.0,icsd-193532,"{62: 3, 14: 11, 78: 23}","[14, 62, 78]",14116237823,Sm3Si11Pt23
Rb2SiS3,mp-12016,2.8274,0.80613455,0.0,icsd-409804,"{37: 2, 14: 1, 16: 3}","[14, 16, 37]",141163372,Rb2Si1S3
Cs2SiS3,mp-1103520,2.9485,1.18892153,0.0,icsd-409176,"{55: 2, 14: 1, 16: 3}","[14, 16, 55]",141163552,Cs2Si1S3
Tl2SiS3,mp-8190,2.3602999999999996,2.68179134,0.0,icsd-35041,"{81: 2, 14: 1, 16: 3}","[14, 16, 81]",141163812,Tl2Si1S3
KYSiS4,mp-863754,2.8038000000000003,1.97748583,0.0,icsd-602576,"{19: 1, 39: 1, 14: 1, 16: 4}","[14, 16, 19, 39]",141164191391,K1Y1Si1S4
KLaSiS4,mp-861938,2.8686000000000003,2.60457874,0.0,icsd-603184,"{19: 1, 57: 1, 14: 1, 16: 4}","[14, 16, 19, 57]",141164191571,K1La1Si1S4
KCeSiS4,mp-22809,0.07430000000000003,4.61730447,0.0,icsd-87946,"{19: 1, 58: 1, 14: 1, 16: 4}","[14, 16, 19, 58]",141164191581,K1Ce1Si1S4
KEuSiS4,mp-562302,0.0,1.90704548,0.0,icsd-280649,"{19: 1, 63: 1, 14: 1, 16: 4}","[14, 16, 19, 63]",141164191631,K1Eu1Si1S4
KSiBiS4,mp-866651,2.0549,2.24558901,0.0,icsd-421485,"{19: 1, 14: 1, 83: 1, 16: 4}","[14, 16, 19, 83]",141164191831,K1Si1Bi1S4
Ca2SiS4,mp-1194033,3.1115,5.03626924,0.0,icsd-619542,"{20: 2, 14: 1, 16: 4}","[14, 16, 20]",141164202,Ca2Si1S4
MnCu2SiS4,mp-12023,0.0,4.94005068,0.0,icsd-415452,"{25: 1, 29: 2, 14: 1, 16: 4}","[14, 16, 25, 29]",141164251292,Mn1Cu2Si1S4
Mn2SiS4,mp-5056,0.35360000000000014,4.70376317,0.0,icsd-57422,"{25: 2, 14: 1, 16: 4}","[14, 16, 25]",141164252,Mn2Si1S4
ZnCu2SiS4,mp-1189702,1.6100000000000003,4.68042996,0.0,icsd-236248,"{30: 1, 29: 2, 14: 1, 16: 4}","[14, 16, 29, 30]",141164292301,Zn1Cu2Si1S4
CdCu2SiS4,mp-6449,0.9802999999999997,4.37725876,0.0,icsd-16924,"{48: 1, 29: 2, 14: 1, 16: 4}","[14, 16, 29, 48]",141164292481,Cd1Cu2Si1S4
Cu2SiHgS4,mp-1106310,0.40109999999999957,4.40947888,0.0,icsd-627928,"{29: 2, 14: 1, 80: 1, 16: 4}","[14, 16, 29, 80]",141164292801,Cu2Si1Hg1S4
ZnSi(AgS2)2,mp-1189914,1.6859000000000006,2.65690428,0.0,icsd-183705,"{30: 1, 14: 1, 47: 2, 16: 4}","[14, 16, 30, 47]",141164301472,Zn1Si1Ag2S4
RbLaSiS4,mp-18658,2.7894,2.57989123,0.0,icsd-414545,"{37: 1, 57: 1, 14: 1, 16: 4}","[14, 16, 37, 57]",141164371571,Rb1La1Si1S4
RbEuSiS4,mp-607479,0.0,1.67401134,0.0,icsd-416620,"{37: 1, 63: 1, 14: 1, 16: 4}","[14, 16, 37, 63]",141164371631,Rb1Eu1Si1S4
RbSiBiS4,mp-560051,1.9806,2.03080071,0.0,icsd-281166,"{37: 1, 14: 1, 83: 1, 16: 4}","[14, 16, 37, 83]",141164371831,Rb1Si1Bi1S4
Sr2SiS4,mp-1104926,2.8995,2.71306304,0.0,icsd-650888,"{38: 2, 14: 1, 16: 4}","[14, 16, 38]",141164382,Sr2Si1S4
TlInSiS4,mp-556744,2.4359,1.98057208,0.0,icsd-655336,"{81: 1, 49: 1, 14: 1, 16: 4}","[14, 16, 49, 81]",141164491811,Tl1In1Si1S4
CsCeSiS4,mp-1194418,0.022500000000000853,4.61539079,0.0,icsd-415084,"{55: 1, 58: 1, 14: 1, 16: 4}","[14, 16, 55, 58]",141164551581,Cs1Ce1Si1S4
CsSmSiS4,mp-561635,2.8414,1.92693467,0.0,icsd-412749,"{55: 1, 62: 1, 14: 1, 16: 4}","[14, 16, 55, 62]",141164551621,Cs1Sm1Si1S4
CsEuSiS4,mp-1192887,0.0,1.75549327,0.0,icsd-412746,"{55: 1, 63: 1, 14: 1, 16: 4}","[14, 16, 55, 63]",141164551631,Cs1Eu1Si1S4
CsGdSiS4,mp-630711,1.749,1.89642961,0.0,icsd-412747,"{55: 1, 64: 1, 14: 1, 16: 4}","[14, 16, 55, 64]",141164551641,Cs1Gd1Si1S4
CsTbSiS4,mp-1194142,2.8851999999999998,2.00392851,0.0,icsd-412750,"{55: 1, 65: 1, 14: 1, 16: 4}","[14, 16, 55, 65]",141164551651,Cs1Tb1Si1S4
CsDySiS4,mp-1193064,2.9318999999999997,1.9228172,0.0,icsd-412744,"{55: 1, 66: 1, 14: 1, 16: 4}","[14, 16, 55, 66]",141164551661,Cs1Dy1Si1S4
CsHoSiS4,mp-1193331,2.9111000000000002,2.01244785,0.0,icsd-412748,"{55: 1, 67: 1, 14: 1, 16: 4}","[14, 16, 55, 67]",141164551671,Cs1Ho1Si1S4
CsErSiS4,mp-16972,2.9570000000000003,1.95175175,0.0,icsd-412745,"{55: 1, 68: 1, 14: 1, 16: 4}","[14, 16, 55, 68]",141164551681,Cs1Er1Si1S4
CsTmSiS4,mp-1194326,2.9693000000000005,1.95317093,0.0,icsd-412751,"{55: 1, 69: 1, 14: 1, 16: 4}","[14, 16, 55, 69]",141164551691,Cs1Tm1Si1S4
CsSiBiS4,mp-558426,2.4826,1.91313441,0.0,icsd-281169,"{55: 1, 14: 1, 83: 1, 16: 4}","[14, 16, 55, 83]",141164551831,Cs1Si1Bi1S4
Ba2SiS4,mp-5838,3.0012,2.54248449,0.0,icsd-616062,"{56: 2, 14: 1, 16: 4}","[14, 16, 56]",141164562,Ba2Si1S4
Eu2SiS4,mp-22504,0.28940000000000055,5.02947862,0.0,icsd-95775,"{63: 2, 14: 1, 16: 4}","[14, 16, 63]",141164632,Eu2Si1S4
Tl4SiS4,mp-8479,1.9544999999999995,2.88626766,0.0,icsd-59170,"{81: 4, 14: 1, 16: 4}","[14, 16, 81]",141164814,Tl4Si1S4
Si(PbS2)2,mp-504564,1.9690000000000003,3.93546722,0.0,icsd-16317,"{14: 1, 82: 2, 16: 4}","[14, 16, 82]",141164822,Si1Pb2S4
Ba3SiS5,mp-27805,2.8127,2.65806972,0.0,icsd-26377,"{56: 3, 14: 1, 16: 5}","[14, 16, 56]",141165563,Ba3Si1S5
La2SiS5,mp-558724,2.3415,5.17325871,0.0,icsd-240952,"{57: 2, 14: 1, 16: 5}","[14, 16, 57]",141165572,La2Si1S5
Nd2SiS5,mp-1209955,2.4368,6.12619273,0.0,pf-10163,"{60: 2, 14: 1, 16: 5}","[14, 16, 60]",141165602,Nd2Si1S5
Nd3SiS6Cl,mp-559779,2.5568000000000004,5.48390868,0.0,icsd-412619,"{60: 3, 14: 1, 16: 6, 17: 1}","[14, 16, 17, 60]",141166171603,Nd3Si1S6Cl1
Sm3SiS6Cl,mp-556910,2.5659,3.01194854,0.0,icsd-280950,"{62: 3, 14: 1, 16: 6, 17: 1}","[14, 16, 17, 62]",141166171623,Sm3Si1S6Cl1
Dy3Si11Pt23,mp-1200984,0.0,7.62539567,0.0,icsd-236865,"{66: 3, 14: 11, 78: 23}","[14, 66, 78]",14116637823,Dy3Si11Pt23
Si(Ag4S3)2,mp-7614,0.7551000000000001,2.74039186,0.0,icsd-1054,"{14: 1, 47: 8, 16: 6}","[14, 16, 47]",141166478,Si1Ag8S6
Y3CuSiS7,mp-561173,1.7371999999999996,4.67555977,0.0,icsd-628864,"{39: 3, 29: 1, 14: 1, 16: 7}","[14, 16, 29, 39]",141167291393,Y3Cu1Si1S7
La3CuSiS7,mp-504650,1.7827000000000002,5.76536832,0.0,icsd-628244,"{57: 3, 29: 1, 14: 1, 16: 7}","[14, 16, 29, 57]",141167291573,La3Cu1Si1S7
Ce3CuSiS7,mp-558375,0.007100000000000328,7.174637,0.0,icsd-156274,"{58: 3, 29: 1, 14: 1, 16: 7}","[14, 16, 29, 58]",141167291583,Ce3Cu1Si1S7
Pr3CuSiS7,mp-555893,1.5885999999999996,4.28305139,0.0,icsd-156276,"{59: 3, 29: 1, 14: 1, 16: 7}","[14, 16, 29, 59]",141167291593,Pr3Cu1Si1S7
Nd3CuSiS7,mp-556975,1.6357,4.37601614,0.0,icsd-628523,"{60: 3, 29: 1, 14: 1, 16: 7}","[14, 16, 29, 60]",141167291603,Nd3Cu1Si1S7
Sm3CuSiS7,mp-554097,1.6556999999999995,4.39069947,0.0,icsd-156277,"{62: 3, 29: 1, 14: 1, 16: 7}","[14, 16, 29, 62]",141167291623,Sm3Cu1Si1S7
Tb3CuSiS7,mp-560501,1.7330000000000005,4.68384024,0.0,icsd-628862,"{65: 3, 29: 1, 14: 1, 16: 7}","[14, 16, 29, 65]",141167291653,Tb3Cu1Si1S7
Dy3CuSiS7,mp-557998,1.8005999999999993,4.67866981,0.0,icsd-627171,"{66: 3, 29: 1, 14: 1, 16: 7}","[14, 16, 29, 66]",141167291663,Dy3Cu1Si1S7
Ho3CuSiS7,mp-17486,1.8224999999999998,4.83144519,0.0,icsd-159886,"{67: 3, 29: 1, 14: 1, 16: 7}","[14, 16, 29, 67]",141167291673,Ho3Cu1Si1S7
Er3CuSiS7,mp-558980,1.8759999999999994,4.63342126,0.0,icsd-627245,"{68: 3, 29: 1, 14: 1, 16: 7}","[14, 16, 29, 68]",141167291683,Er3Cu1Si1S7
Ho3Si11Pt23,mp-1201436,0.0,7.55937578,0.0,icsd-236866,"{67: 3, 14: 11, 78: 23}","[14, 67, 78]",14116737823,Ho3Si11Pt23
La3SiAgS7,mp-17719,1.9663000000000004,5.31582187,0.0,icsd-409845,"{57: 3, 14: 1, 47: 1, 16: 7}","[14, 16, 47, 57]",141167471573,La3Si1Ag1S7
Ce3SiAgS7,mp-866605,0.019699999999999385,6.90846231,0.0,icsd-604959,"{58: 3, 14: 1, 47: 1, 16: 7}","[14, 16, 47, 58]",141167471583,Ce3Si1Ag1S7
Pr3SiAgS7,mp-863751,1.8048999999999995,3.96855311,0.0,icsd-605682,"{59: 3, 14: 1, 47: 1, 16: 7}","[14, 16, 47, 59]",141167471593,Pr3Si1Ag1S7
Nd3SiAgS7,mp-864666,1.7708999999999997,3.95998056,0.0,icsd-605606,"{60: 3, 14: 1, 47: 1, 16: 7}","[14, 16, 47, 60]",141167471603,Nd3Si1Ag1S7
Sm3SiAgS7,mp-863032,1.8405000000000005,4.09119673,0.0,icsd-605724,"{62: 3, 14: 1, 47: 1, 16: 7}","[14, 16, 47, 62]",141167471623,Sm3Si1Ag1S7
Er3Si11Pt23,mp-1201817,0.0,7.50910291,0.0,icsd-236867,"{68: 3, 14: 11, 78: 23}","[14, 68, 78]",14116837823,Er3Si11Pt23
La3SiCl3,mp-1211457,0.0,6.2604734,0.0,pf-3074,"{57: 3, 14: 1, 17: 3}","[14, 17, 57]",141173573,La3Si1Cl3
SiCl4,mp-28391,5.5658,-2.63413313,0.0,icsd-62279,"{14: 1, 17: 4}","[14, 17]",141174,Si1Cl4
KSi,mp-1217,1.2619000000000002,1.75708683,0.0,icsd-641368,"{19: 1, 14: 1}","[14, 19]",141191,K1Si1
KLaSiSe4,mp-861606,2.2080999999999995,2.29878699,0.0,icsd-603185,"{19: 1, 57: 1, 14: 1, 34: 4}","[14, 19, 34, 57]",141191344571,K1La1Si1Se4
KPrSiSe4,mp-13538,2.1773,1.50127263,0.0,icsd-416622,"{19: 1, 59: 1, 14: 1, 34: 4}","[14, 19, 34, 59]",141191344591,K1Pr1Si1Se4
K2SiAs2,mp-6984,1.0036,2.10370136,0.0,icsd-40426,"{19: 2, 14: 1, 33: 2}","[14, 19, 33]",141192332,K2Si1As2
K2EuSiSe5,mp-628804,0.3390000000000004,3.41544887,0.0,icsd-280647,"{19: 2, 63: 1, 14: 1, 34: 5}","[14, 19, 34, 63]",141192345631,K2Eu1Si1Se5
K3SiTe3,mp-7657,1.7179000000000002,1.68595008,0.0,icsd-1238,"{19: 3, 14: 1, 52: 3}","[14, 19, 52]",141193523,K3Si1Te3
CaSi,mp-1563,0.0,4.91583017,0.0,icsd-190659,"{20: 1, 14: 1}","[14, 20]",141201,Ca1Si1
CaZnSi,mp-16266,0.0,4.20188067,0.0,icsd-52791,"{20: 1, 30: 1, 14: 1}","[14, 20, 30]",141201301,Ca1Zn1Si1
SrCaSi,mp-7084,0.42239999999999966,3.08389273,0.0,icsd-172005,"{38: 1, 20: 1, 14: 1}","[14, 20, 38]",141201381,Sr1Ca1Si1
CaSiPd,mp-8842,0.0,5.11086412,0.0,icsd-69790,"{20: 1, 14: 1, 46: 1}","[14, 20, 46]",141201461,Ca1Si1Pd1
BaCaSi,mp-16253,0.1767000000000003,3.02787046,0.0,icsd-52682,"{56: 1, 20: 1, 14: 1}","[14, 20, 56]",141201561,Ba1Ca1Si1
CaSiPt,mp-4478,0.0,5.41119814,0.0,icsd-63555,"{20: 1, 14: 1, 78: 1}","[14, 20, 78]",141201781,Ca1Si1Pt1
Ca2Si,mp-1009733,0.5509000000000004,2.34642577,0.0,icsd-187352,"{20: 2, 14: 1}","[14, 20]",141202,Ca2Si1
Ca2SiSe4,mp-1194183,2.4024,1.42241279,0.0,icsd-619574,"{20: 2, 14: 1, 34: 4}","[14, 20, 34]",141202344,Ca2Si1Se4
Ca2SiIr2,mp-30312,0.0,5.50455336,0.0,icsd-95789,"{20: 2, 14: 1, 77: 2}","[14, 20, 77]",141202772,Ca2Si1Ir2
ScSi,mp-9969,0.0,6.35413905,0.0,icsd-42946,"{21: 1, 14: 1}","[14, 21]",141211,Sc1Si1
ScMnSi,mp-9550,0.0,5.98775014,0.0,icsd-86369,"{21: 1, 25: 1, 14: 1}","[14, 21, 25]",141211251,Sc1Mn1Si1
ScFeSi,mp-22701,0.0,6.42500677,0.0,icsd-76346,"{21: 1, 26: 1, 14: 1}","[14, 21, 26]",141211261,Sc1Fe1Si1
ScCoSi,mp-1103034,0.0,6.64202439,0.0,icsd-420415,"{21: 1, 27: 1, 14: 1}","[14, 21, 27]",141211271,Sc1Co1Si1
ScCuSi,mp-15322,0.0,6.87106112,0.0,icsd-86392,"{21: 1, 29: 1, 14: 1}","[14, 21, 29]",141211291,Sc1Cu1Si1
ScSiRu,mp-1080715,0.0,7.34996181,0.0,icsd-650603,"{21: 1, 14: 1, 44: 1}","[14, 21, 44]",141211441,Sc1Si1Ru1
ScSiRh,mp-20492,0.0,6.83144185,0.0,icsd-79596,"{21: 1, 14: 1, 45: 1}","[14, 21, 45]",141211451,Sc1Si1Rh1
ScSiPd,mp-1102080,0.0,6.24674563,0.0,icsd-420418,"{21: 1, 14: 1, 46: 1}","[14, 21, 46]",141211461,Sc1Si1Pd1
LaScSi,mp-1024951,0.0,6.60757278,0.0,icsd-641915,"{57: 1, 21: 1, 14: 1}","[14, 21, 57]",141211571,La1Sc1Si1
GdScSi,mp-22480,0.0,4.56109515,0.0,icsd-86067,"{64: 1, 21: 1, 14: 1}","[14, 21, 64]",141211641,Gd1Sc1Si1
ScSiIr,mp-1095563,0.0,7.72291465,0.0,icsd-640977,"{21: 1, 14: 1, 77: 1}","[14, 21, 77]",141211771,Sc1Si1Ir1