formula,material_id,band_gap,efermi,energy_above_hull,database_IDs,comp_atoms,sorted_keys_comp_atoms,comp_number,new_formula
BaSi(S2O7)3,mp-1201400,5.2985999999999995,-0.49244777,0.0,icsd-422715,"{56: 1, 14: 1, 16: 6, 8: 21}","[8, 14, 16, 56]",821141166561,Ba1Si1S6O21
Ca4Si6Pb6Cl2O21,mp-558268,3.3861,3.01959843,0.0,icsd-34848,"{20: 4, 14: 6, 82: 6, 17: 2, 8: 21}","[8, 14, 17, 20, 82]",821146172204826,Ca4Si6Pb6Cl2O21
MnSi6Pb8O21,mp-699587,3.2441000000000004,3.32418741,0.0,icsd-14370,"{25: 1, 14: 6, 82: 8, 8: 21}","[8, 14, 25, 82]",821146251828,Mn1Si6Pb8O21
K5In3(SiO3)7,mp-557237,3.8853,1.05946232,0.0,icsd-249478,"{19: 5, 49: 3, 14: 7, 8: 21}","[8, 14, 19, 49]",821147195493,K5In3Si7O21
K2Ca4Si8O21,mp-1019746,4.3804,1.27771484,0.0,icsd-249953,"{19: 2, 20: 4, 14: 8, 8: 21}","[8, 14, 19, 20]",821148192204,K2Ca4Si8O21
K4In2Si8O21,mp-553982,4.0426,1.02444197,0.0,icsd-249479,"{19: 4, 49: 2, 14: 8, 8: 21}","[8, 14, 19, 49]",821148194492,K4In2Si8O21
SiO2,mp-7000,5.719,0.8900259,0.0,icsd-79635,"{14: 1, 8: 2}","[8, 14]",82141,Si1O2
Rb6Si10O23,mp-27376,4.3121,0.63748979,0.0,icsd-14023,"{37: 6, 14: 10, 8: 23}","[8, 14, 37]",8231410376,Rb6Si10O23
Rb4Nb2Si8O23,mp-542121,3.7154,0.577923,0.0,icsd-281064,"{37: 4, 41: 2, 14: 8, 8: 23}","[8, 14, 37, 41]",823148374412,Rb4Nb2Si8O23
Cs4Nb2Si8O23,mp-555696,3.7001999999999997,0.93103251,0.0,icsd-68953,"{55: 4, 41: 2, 14: 8, 8: 23}","[8, 14, 41, 55]",823148412554,Cs4Nb2Si8O23
CsTi3Si2P6O25,mp-541318,0.0,3.58100412,0.0,icsd-69547,"{55: 1, 22: 3, 14: 2, 15: 6, 8: 25}","[8, 14, 15, 22, 55]",825142156223551,Cs1Ti3Si2P6O25
Si2Ge3P6O25,mp-555982,4.0974,0.66661332,0.0,icsd-202643,"{14: 2, 32: 3, 15: 6, 8: 25}","[8, 14, 15, 32]",825142156323,Si2Ge3P6O25
CsSi2Mo3P6O25,mp-1213518,1.3245000000000002,2.79316629,0.0,pf-5621,"{55: 1, 14: 2, 42: 3, 15: 6, 8: 25}","[8, 14, 15, 42, 55]",825142156423551,Cs1Si2Mo3P6O25
Si5P6O25,mp-3273,5.6022,1.39988176,0.0,icsd-72999,"{14: 5, 15: 6, 8: 25}","[8, 14, 15]",825145156,Si5P6O25
Ba3Nb6(Si2O13)2,mp-6101,2.281,1.00711561,0.0,icsd-16029,"{56: 3, 41: 6, 14: 4, 8: 26}","[8, 14, 41, 56]",826144416563,Ba3Nb6Si4O26
Ba3Ta6(Si2O13)2,mp-6169,3.0288000000000004,1.26013209,0.0,icsd-15935,"{56: 3, 73: 6, 14: 4, 8: 26}","[8, 14, 56, 73]",826144563736,Ba3Ta6Si4O26
Sr2Si(S2O7)4,mp-1020612,4.9136,-0.10953538,0.0,icsd-423713,"{38: 2, 14: 1, 16: 8, 8: 28}","[8, 14, 16, 38]",828141168382,Sr2Si1S8O28
Na2SiO3,mp-4533,3.8657000000000004,1.19803672,0.0,icsd-15388,"{11: 2, 14: 1, 8: 3}","[8, 11, 14]",83112141,Na2Si1O3
Eu2SiCl2O3,mp-555322,0.6427999999999994,5.07113269,0.0,icsd-400126,"{63: 2, 14: 1, 17: 2, 8: 3}","[8, 14, 17, 63]",83141172632,Eu2Si1Cl2O3
K2SiO3,mp-15379,3.6483000000000003,0.22688475,0.0,icsd-201163,"{19: 2, 14: 1, 8: 3}","[8, 14, 19]",83141192,K2Si1O3
CaSiO3,mp-4429,4.8413,1.65505433,0.0,icsd-201537,"{20: 1, 14: 1, 8: 3}","[8, 14, 20]",83141201,Ca1Si1O3
Rb2SiO3,mp-16194,3.3292,0.47477581,0.0,icsd-411662,"{37: 2, 14: 1, 8: 3}","[8, 14, 37]",83141372,Rb2Si1O3
SrSiO3,mp-3978,4.6251,1.079017,0.0,icsd-261228,"{38: 1, 14: 1, 8: 3}","[8, 14, 38]",83141381,Sr1Si1O3
CdSiO3,mp-560560,2.573,1.3090774,0.0,icsd-170703,"{48: 1, 14: 1, 8: 3}","[8, 14, 48]",83141481,Cd1Si1O3
Cs2SiO3,mp-505734,3.3766,1.38472227,0.0,icsd-411663,"{55: 2, 14: 1, 8: 3}","[8, 14, 55]",83141552,Cs2Si1O3
SiPbO3,mp-21723,3.1053,3.33972898,0.0,icsd-250220,"{14: 1, 82: 1, 8: 3}","[8, 14, 82]",83141821,Si1Pb1O3
Ce10Si8O3,mp-555617,0.0,8.34232864,0.0,icsd-173576,"{58: 10, 14: 8, 8: 3}","[8, 14, 58]",831485810,Ce10Si8O3
K9Y3Si12(O16F)2,mp-1198649,4.995,5.32560783,0.0,icsd-248316,"{19: 9, 39: 3, 14: 12, 8: 32, 9: 2}","[8, 9, 14, 19, 39]",832921412199393,K9Y3Si12O32F2
K9Sm3Si12(O16F)2,mp-560235,4.5766,0.41806197,0.0,icsd-249731,"{19: 9, 62: 3, 14: 12, 8: 32, 9: 2}","[8, 9, 14, 19, 62]",832921412199623,K9Sm3Si12O32F2
K9Gd3Si12(O16F)2,mp-1211874,3.7656,4.13175922,0.0,pf-8626,"{19: 9, 64: 3, 14: 12, 8: 32, 9: 2}","[8, 9, 14, 19, 64]",832921412199643,K9Gd3Si12O32F2
K4Nb8Si(P2O17)2,mp-14873,1.8862999999999999,0.59334493,0.0,icsd-71882,"{19: 4, 41: 8, 14: 1, 15: 4, 8: 34}","[8, 14, 15, 19, 41]",834141154194418,K4Nb8Si1P4O34
LaSiO3F,mp-541995,4.541399999999999,4.13040863,0.0,icsd-89522,"{57: 1, 14: 1, 8: 3, 9: 1}","[8, 9, 14, 57]",8391141571,La1Si1O3F1
NaGaSiO4,mp-560632,3.8215,0.52698937,0.0,icsd-411328,"{11: 1, 31: 1, 14: 1, 8: 4}","[8, 11, 14, 31]",84111141311,Na1Ga1Si1O4
NaLaSiO4,mp-1020648,4.454600000000001,3.75731615,0.0,icsd-430196,"{11: 1, 57: 1, 14: 1, 8: 4}","[8, 11, 14, 57]",84111141571,Na1La1Si1O4
NaNdSiO4,mp-13774,4.4774,2.23382709,0.0,icsd-20287,"{11: 1, 60: 1, 14: 1, 8: 4}","[8, 11, 14, 60]",84111141601,Na1Nd1Si1O4
NaGdSiO4,mp-18515,0.22840000000000016,2.54521378,0.0,icsd-16188,"{11: 1, 64: 1, 14: 1, 8: 4}","[8, 11, 14, 64]",84111141641,Na1Gd1Si1O4
NaLuSiO4,mp-1210117,4.396599999999999,1.46284803,0.0,pf-22914,"{11: 1, 71: 1, 14: 1, 8: 4}","[8, 11, 14, 71]",84111141711,Na1Lu1Si1O4
Na2ZnSiO4,mp-6391,3.1742999999999997,1.00331604,0.0,icsd-27735,"{11: 2, 30: 1, 14: 1, 8: 4}","[8, 11, 14, 30]",84112141301,Na2Zn1Si1O4
Rb2Na2SiO4,mp-559711,3.083,0.87895198,0.0,icsd-416328,"{37: 2, 11: 2, 14: 1, 8: 4}","[8, 11, 14, 37]",84112141372,Rb2Na2Si1O4
Na4SiO4,mp-7500,3.2221,1.17371432,0.0,icsd-62594,"{11: 4, 14: 1, 8: 4}","[8, 11, 14]",84114141,Na4Si1O4
Ca3Si(ClO2)2,mp-540868,4.1532,1.30782788,0.0,icsd-38359,"{20: 3, 14: 1, 17: 2, 8: 4}","[8, 14, 17, 20]",84141172203,Ca3Si1Cl2O4
SiPb4(ClO)4,mp-561110,3.5302999999999995,2.1115492,0.0,icsd-65471,"{14: 1, 82: 4, 17: 4, 8: 4}","[8, 14, 17, 82]",84141174824,Si1Pb4Cl4O4
Ba5Si(Cl3O2)2,mp-555087,4.5485999999999995,0.71033064,0.0,icsd-67566,"{56: 5, 14: 1, 17: 6, 8: 4}","[8, 14, 17, 56]",84141176565,Ba5Si1Cl6O4
K2CoSiO4,mp-505285,2.7551,4.58216015,0.0,icsd-83228,"{19: 2, 27: 1, 14: 1, 8: 4}","[8, 14, 19, 27]",84141192271,K2Co1Si1O4
K2ZnSiO4,mp-541537,3.4888999999999997,0.7844337,0.0,icsd-83227,"{19: 2, 30: 1, 14: 1, 8: 4}","[8, 14, 19, 30]",84141192301,K2Zn1Si1O4
K2CdSiO4,mp-541538,2.6403,0.52827044,0.0,icsd-83229,"{19: 2, 48: 1, 14: 1, 8: 4}","[8, 14, 19, 48]",84141192481,K2Cd1Si1O4
K4SiO4,mp-18700,2.9391,0.62860007,0.0,icsd-66073,"{19: 4, 14: 1, 8: 4}","[8, 14, 19]",84141194,K4Si1O4
CaMnSiO4,mp-1213991,2.5993999999999997,5.64375931,0.0,pf-4148,"{20: 1, 25: 1, 14: 1, 8: 4}","[8, 14, 20, 25]",84141201251,Ca1Mn1Si1O4
Ca2SiO4,mp-4481,4.199400000000001,1.69778287,0.0,icsd-200707,"{20: 2, 14: 1, 8: 4}","[8, 14, 20]",84141202,Ca2Si1O4
Mn2SiO4,mp-18928,1.9884999999999997,3.61428526,0.0,icsd-26376,"{25: 2, 14: 1, 8: 4}","[8, 14, 25]",84141252,Mn2Si1O4
Fe2SiO4,mp-20313,2.7086000000000006,3.32770945,0.0,icsd-54034,"{26: 2, 14: 1, 8: 4}","[8, 14, 26]",84141262,Fe2Si1O4
Cs2CoSiO4,mp-542168,2.6452999999999998,1.9748242,0.0,icsd-93878,"{55: 2, 27: 1, 14: 1, 8: 4}","[8, 14, 27, 55]",84141271552,Cs2Co1Si1O4
ZnSiPbO4,mp-21724,3.1014000000000004,2.4970142,0.0,icsd-26840,"{30: 1, 14: 1, 82: 1, 8: 4}","[8, 14, 30, 82]",84141301821,Zn1Si1Pb1O4
Zn2SiO4,mp-3789,2.7537000000000003,0.69371551,0.0,icsd-167187,"{30: 2, 14: 1, 8: 4}","[8, 14, 30]",84141302,Zn2Si1O4
La2SiSeO4,mp-17834,2.2089000000000008,6.65372721,0.0,icsd-69552,"{57: 2, 14: 1, 34: 1, 8: 4}","[8, 14, 34, 57]",84141341572,La2Si1Se1O4
Nd2SiSeO4,mp-18466,2.6009,4.58753068,0.0,icsd-66025,"{60: 2, 14: 1, 34: 1, 8: 4}","[8, 14, 34, 60]",84141341602,Nd2Si1Se1O4
Sm2SiSeO4,mp-18610,2.6930000000000005,4.51736774,0.0,icsd-410907,"{62: 2, 14: 1, 34: 1, 8: 4}","[8, 14, 34, 62]",84141341622,Sm2Si1Se1O4
Tb2SiSeO4,mp-17913,2.5839,5.01499605,0.0,icsd-409597,"{65: 2, 14: 1, 34: 1, 8: 4}","[8, 14, 34, 65]",84141341652,Tb2Si1Se1O4
SiPb4(BrO)4,mp-556172,3.1492,1.97545304,0.0,icsd-65472,"{14: 1, 82: 4, 35: 4, 8: 4}","[8, 14, 35, 82]",84141354824,Si1Pb4Br4O4
Ba5Si(Br3O2)2,mp-553884,4.2627999999999995,0.4511131,0.0,icsd-73365,"{56: 5, 14: 1, 35: 6, 8: 4}","[8, 14, 35, 56]",84141356565,Ba5Si1Br6O4
Rb2CdSiO4,mp-558568,2.4877000000000002,0.94252452,0.0,icsd-93879,"{37: 2, 48: 1, 14: 1, 8: 4}","[8, 14, 37, 48]",84141372481,Rb2Cd1Si1O4
Sr2SiO4,mp-18510,4.5509,2.42774707,0.0,icsd-36041,"{38: 2, 14: 1, 8: 4}","[8, 14, 38]",84141382,Sr2Si1O4
ZrSiO4,mp-4820,4.1835,3.01747659,0.0,icsd-71942,"{40: 1, 14: 1, 8: 4}","[8, 14, 40]",84141401,Zr1Si1O4
Cd2SiO4,mp-4530,1.4629999999999999,1.67866465,0.0,icsd-50531,"{48: 2, 14: 1, 8: 4}","[8, 14, 48]",84141482,Cd2Si1O4
Pr2SiTeO4,mp-17750,2.0843999999999996,5.486437,0.0,icsd-89579,"{59: 2, 14: 1, 52: 1, 8: 4}","[8, 14, 52, 59]",84141521592,Pr2Si1Te1O4
Nd2SiTeO4,mp-18542,2.0477,5.60971716,0.0,icsd-91330,"{60: 2, 14: 1, 52: 1, 8: 4}","[8, 14, 52, 60]",84141521602,Nd2Si1Te1O4
Cs10Tl6SiO4,mp-1199833,0.19229999999999992,2.82916105,0.0,icsd-422187,"{55: 10, 81: 6, 14: 1, 8: 4}","[8, 14, 55, 81]",841415510816,Cs10Tl6Si1O4
Ba2SiO4,mp-17612,4.6319,1.97908515,0.0,icsd-291359,"{56: 2, 14: 1, 8: 4}","[8, 14, 56]",84141562,Ba2Si1O4
Eu2SiO4,mp-554546,0.28889999999999993,6.11997108,0.0,icsd-23615,"{63: 2, 14: 1, 8: 4}","[8, 14, 63]",84141632,Eu2Si1O4
HfSiO4,mp-4609,5.069999999999999,3.32290175,0.0,icsd-31177,"{72: 1, 14: 1, 8: 4}","[8, 14, 72]",84141721,Hf1Si1O4
ThSiO4,mp-5836,4.890000000000001,3.11781514,0.0,icsd-9507,"{90: 1, 14: 1, 8: 4}","[8, 14, 90]",84141901,Th1Si1O4
Ba6Nb14Si4O47,mp-560469,0.0,3.85446114,0.0,icsd-67602,"{56: 6, 41: 14, 14: 4, 8: 47}","[8, 14, 41, 56]",8471444114566,Ba6Nb14Si4O47
Mn3Si(O2F)2,mp-554429,2.6431,2.29080622,0.0,icsd-410934,"{25: 3, 14: 1, 8: 4, 9: 2}","[8, 9, 14, 25]",8492141253,Mn3Si1O4F2
RbNaSi2O5,mp-557656,4.4435,0.83227294,0.0,icsd-92534,"{37: 1, 11: 1, 14: 2, 8: 5}","[8, 11, 14, 37]",85111142371,Rb1Na1Si2O5
CsNaSi2O5,mp-572951,4.4582,0.93557904,0.0,icsd-92535,"{55: 1, 11: 1, 14: 2, 8: 5}","[8, 11, 14, 55]",85111142551,Cs1Na1Si2O5
Na2TiSiO5,mp-6138,2.9703,2.02052296,0.0,icsd-1533,"{11: 2, 22: 1, 14: 1, 8: 5}","[8, 11, 14, 22]",85112141221,Na2Ti1Si1O5
Na2ZrSiO5,mp-556709,4.0040000000000004,1.66422011,0.0,icsd-20101,"{11: 2, 40: 1, 14: 1, 8: 5}","[8, 11, 14, 40]",85112141401,Na2Zr1Si1O5
Na2Si2O5,mp-3193,4.4712,0.81822523,0.0,icsd-34688,"{11: 2, 14: 2, 8: 5}","[8, 11, 14]",85112142,Na2Si2O5
KSiSbO5,mp-14721,2.8079,1.64426218,0.0,icsd-69429,"{19: 1, 14: 1, 51: 1, 8: 5}","[8, 14, 19, 51]",85141191511,K1Si1Sb1O5
CaTiSiO5,mp-6109,2.9854999999999996,2.51225827,0.0,icsd-89745,"{20: 1, 22: 1, 14: 1, 8: 5}","[8, 14, 20, 22]",85141201221,Ca1Ti1Si1O5
CaVSiO5,mp-1213869,1.1317000000000004,3.24160798,0.0,pf-1194,"{20: 1, 23: 1, 14: 1, 8: 5}","[8, 14, 20, 23]",85141201231,Ca1V1Si1O5
RbNbSiO5,mp-557778,3.2067,0.14614838,0.0,icsd-39594,"{37: 1, 41: 1, 14: 1, 8: 5}","[8, 14, 37, 41]",85141371411,Rb1Nb1Si1O5
Y2SiO5,mp-3520,4.7661,1.89247887,0.0,icsd-291362,"{39: 2, 14: 1, 8: 5}","[8, 14, 39]",85141392,Y2Si1O5
Cd3SiO5,mp-13820,0.9679,1.55319435,0.0,icsd-23170,"{48: 3, 14: 1, 8: 5}","[8, 14, 48]",85141483,Cd3Si1O5
La2SiO5,mp-5152,4.4804,4.79820381,0.0,icsd-109414,"{57: 2, 14: 1, 8: 5}","[8, 14, 57]",85141572,La2Si1O5
Nd2SiO5,mp-560132,4.7758,2.33423288,0.0,icsd-419456,"{60: 2, 14: 1, 8: 5}","[8, 14, 60]",85141602,Nd2Si1O5
Sm2SiO5,mp-1208880,4.8314,2.20049394,0.0,pf-31754,"{62: 2, 14: 1, 8: 5}","[8, 14, 62]",85141622,Sm2Si1O5
Gd2SiO5,mp-542831,2.762,2.25857586,0.0,icsd-27728,"{64: 2, 14: 1, 8: 5}","[8, 14, 64]",85141642,Gd2Si1O5
Tb2SiO5,mp-1208518,4.847,2.43951711,0.0,pf-25763,"{65: 2, 14: 1, 8: 5}","[8, 14, 65]",85141652,Tb2Si1O5
Ho2SiO5,mp-17065,4.702,2.5282322,0.0,icsd-95838,"{67: 2, 14: 1, 8: 5}","[8, 14, 67]",85141672,Ho2Si1O5
Er2SiO5,mp-555983,4.7585999999999995,1.77301733,0.0,icsd-419309,"{68: 2, 14: 1, 8: 5}","[8, 14, 68]",85141682,Er2Si1O5
Tm2SiO5,mp-17704,4.6073,2.31434742,0.0,icsd-89623,"{69: 2, 14: 1, 8: 5}","[8, 14, 69]",85141692,Tm2Si1O5
Lu2SiO5,mp-16969,4.6846,1.75495568,0.0,icsd-279584,"{71: 2, 14: 1, 8: 5}","[8, 14, 71]",85141712,Lu2Si1O5
K2Si2O5,mp-29825,4.3282,0.5096256,0.0,icsd-280480,"{19: 2, 14: 2, 8: 5}","[8, 14, 19]",85142192,K2Si2O5
Rb2Si2O5,mp-28971,4.0396,0.27982678,0.0,icsd-78563,"{37: 2, 14: 2, 8: 5}","[8, 14, 37]",85142372,Rb2Si2O5
Cs2Si2O5,mp-562345,4.1909,0.99482083,0.0,icsd-78564,"{55: 2, 14: 2, 8: 5}","[8, 14, 55]",85142552,Cs2Si2O5
BaSi2O5,mp-3031,4.7582,1.06638033,0.0,icsd-10162,"{56: 1, 14: 2, 8: 5}","[8, 14, 56]",85142561,Ba1Si2O5
NaSc(SiO3)2,mp-7074,4.950100000000001,2.23112674,0.0,icsd-74553,"{11: 1, 21: 1, 14: 2, 8: 6}","[8, 11, 14, 21]",86111142211,Na1Sc1Si2O6
NaV(SiO3)2,mp-19287,0.06730000000000036,5.36429859,0.0,icsd-159542,"{11: 1, 23: 1, 14: 2, 8: 6}","[8, 11, 14, 23]",86111142231,Na1V1Si2O6
NaCr(SiO3)2,mp-19367,2.6175,3.04708139,0.0,icsd-10240,"{11: 1, 24: 1, 14: 2, 8: 6}","[8, 11, 14, 24]",86111142241,Na1Cr1Si2O6
NaFe(SiO3)2,mp-21867,2.4223,3.19081183,0.0,icsd-180313,"{11: 1, 26: 1, 14: 2, 8: 6}","[8, 11, 14, 26]",86111142261,Na1Fe1Si2O6
NaIn(SiO3)2,mp-6333,3.4885999999999995,2.95496518,0.0,icsd-183778,"{11: 1, 49: 1, 14: 2, 8: 6}","[8, 11, 14, 49]",86111142491,Na1In1Si2O6
NaTb(SiO3)2,mp-1193942,4.3118,0.9022827,0.0,icsd-423606,"{11: 1, 65: 1, 14: 2, 8: 6}","[8, 11, 14, 65]",86111142651,Na1Tb1Si2O6
Na2Zn(SiO3)2,mp-6675,3.8766000000000003,0.74928604,0.0,icsd-20837,"{11: 2, 30: 1, 14: 2, 8: 6}","[8, 11, 14, 30]",86112142301,Na2Zn1Si2O6
Sm3Si2Cl5O6,mp-556820,4.6078,0.16100386,0.0,icsd-416001,"{62: 3, 14: 2, 17: 5, 8: 6}","[8, 14, 17, 62]",86142175623,Sm3Si2Cl5O6
Gd3Si2Cl5O6,mp-560513,2.531,0.09412832,0.0,icsd-416000,"{64: 3, 14: 2, 17: 5, 8: 6}","[8, 14, 17, 64]",86142175643,Gd3Si2Cl5O6
Tb3Si2Cl5O6,mp-555097,4.6895999999999995,0.25399227,0.0,icsd-415998,"{65: 3, 14: 2, 17: 5, 8: 6}","[8, 14, 17, 65]",86142175653,Tb3Si2Cl5O6
K2Zn(SiO3)2,mp-555318,3.9235,0.63990526,0.0,icsd-79705,"{19: 2, 30: 1, 14: 2, 8: 6}","[8, 14, 19, 30]",86142192301,K2Zn1Si2O6
BaNaNdSi2O7,mp-559384,4.4466,5.87538789,0.0,icsd-20639,"{56: 1, 11: 1, 60: 1, 14: 2, 8: 7}","[8, 11, 14, 56, 60]",87111142561601,Ba1Na1Nd1Si2O7
Na2Mn2Si2O7,mp-540871,2.3516,4.57593422,0.0,icsd-20534,"{11: 2, 25: 2, 14: 2, 8: 7}","[8, 11, 14, 25]",87112142252,Na2Mn2Si2O7
Na2Zn2Si2O7,mp-6507,3.323,0.94261041,0.0,icsd-20477,"{11: 2, 30: 2, 14: 2, 8: 7}","[8, 11, 14, 30]",87112142302,Na2Zn2Si2O7
Na2ZrSi2O7,mp-558191,4.5653,1.44271023,0.0,icsd-24866,"{11: 2, 40: 1, 14: 2, 8: 7}","[8, 11, 14, 40]",87112142401,Na2Zr1Si2O7
Na3ScSi2O7,mp-557463,3.7748000000000004,1.67631047,0.0,icsd-20120,"{11: 3, 21: 1, 14: 2, 8: 7}","[8, 11, 14, 21]",87113142211,Na3Sc1Si2O7
Na3HoSi2O7,mp-1195700,3.9699999999999998,0.93890905,0.0,icsd-430194,"{11: 3, 67: 1, 14: 2, 8: 7}","[8, 11, 14, 67]",87113142671,Na3Ho1Si2O7
Na3TmSi2O7,mp-555421,3.9610000000000003,1.03138424,0.0,icsd-62617,"{11: 3, 69: 1, 14: 2, 8: 7}","[8, 11, 14, 69]",87113142691,Na3Tm1Si2O7
SiP2O7,mp-18157,5.708,2.07597155,0.0,icsd-8096,"{14: 1, 15: 2, 8: 7}","[8, 14, 15]",87141152,Si1P2O7
Mn4SiTeCl2O7,mp-1193890,2.4894000000000003,2.85960517,0.0,icsd-427408,"{25: 4, 14: 1, 52: 1, 17: 2, 8: 7}","[8, 14, 17, 25, 52]",87141172254521,Mn4Si1Te1Cl2O7
Mn4SiTeBr2O7,mp-1193463,2.6948999999999996,2.63319749,0.0,icsd-427407,"{25: 4, 14: 1, 52: 1, 35: 2, 8: 7}","[8, 14, 25, 35, 52]",87141254352521,Mn4Si1Te1Br2O7
La4Si2S3O7,mp-15897,2.4924,6.18949555,0.0,icsd-88265,"{57: 4, 14: 2, 16: 3, 8: 7}","[8, 14, 16, 57]",87142163574,La4Si2S3O7
Pr4Si2S3O7,mp-16159,2.5915,4.17583523,0.0,icsd-92471,"{59: 4, 14: 2, 16: 3, 8: 7}","[8, 14, 16, 59]",87142163594,Pr4Si2S3O7
Nd4Si2S3O7,mp-14835,2.5812999999999997,4.17965088,0.0,icsd-72307,"{60: 4, 14: 2, 16: 3, 8: 7}","[8, 14, 16, 60]",87142163604,Nd4Si2S3O7
Sm4Si2S3O7,mp-6671,2.5838,4.24936541,0.0,icsd-89519,"{62: 4, 14: 2, 16: 3, 8: 7}","[8, 14, 16, 62]",87142163624,Sm4Si2S3O7
Ba2MnSi2ClO7,mp-558848,0.9239000000000002,1.91088639,0.0,icsd-281430,"{56: 2, 25: 1, 14: 2, 17: 1, 8: 7}","[8, 14, 17, 25, 56]",87142171251562,Ba2Mn1Si2Cl1O7
Cr4Si2Cl2O7,mp-556318,2.3202999999999996,2.80893005,0.0,icsd-82686,"{24: 4, 14: 2, 17: 2, 8: 7}","[8, 14, 17, 24]",87142172244,Cr4Si2Cl2O7
KBaYSi2O7,mp-559670,4.664,1.3474998,0.0,icsd-163665,"{19: 1, 56: 1, 39: 1, 14: 2, 8: 7}","[8, 14, 19, 39, 56]",87142191391561,K1Ba1Y1Si2O7
KNbSi2O7,mp-560407,3.431,0.43346082,0.0,icsd-72111,"{19: 1, 41: 1, 14: 2, 8: 7}","[8, 14, 19, 41]",87142191411,K1Nb1Si2O7
KUSi2O7,mp-560631,0.5523000000000002,3.59836809,0.0,icsd-170896,"{19: 1, 92: 1, 14: 2, 8: 7}","[8, 14, 19, 92]",87142191921,K1U1Si2O7
K2ZrSi2O7,mp-559489,4.4017,1.11315576,0.0,icsd-20100,"{19: 2, 40: 1, 14: 2, 8: 7}","[8, 14, 19, 40]",87142192401,K2Zr1Si2O7
K3ScSi2O7,mp-557577,3.6378,1.53862449,0.0,icsd-413432,"{19: 3, 21: 1, 14: 2, 8: 7}","[8, 14, 19, 21]",87142193211,K3Sc1Si2O7
K3NdSi2O7,mp-8614,3.5564,0.8698671,0.0,icsd-62179,"{19: 3, 60: 1, 14: 2, 8: 7}","[8, 14, 19, 60]",87142193601,K3Nd1Si2O7
K3SmSi2O7,mp-1195475,3.6152999999999995,0.86805185,0.0,icsd-430193,"{19: 3, 62: 1, 14: 2, 8: 7}","[8, 14, 19, 62]",87142193621,K3Sm1Si2O7
K3GdSi2O7,mp-680437,3.1454,0.9081711,0.0,icsd-412521,"{19: 3, 64: 1, 14: 2, 8: 7}","[8, 14, 19, 64]",87142193641,K3Gd1Si2O7
K3TbSi2O7,mp-16594,3.688,0.9657196,0.0,icsd-412522,"{19: 3, 65: 1, 14: 2, 8: 7}","[8, 14, 19, 65]",87142193651,K3Tb1Si2O7
K3DySi2O7,mp-16595,3.7064,1.02977437,0.0,icsd-412523,"{19: 3, 66: 1, 14: 2, 8: 7}","[8, 14, 19, 66]",87142193661,K3Dy1Si2O7
K3HoSi2O7,mp-16596,3.7219999999999995,1.02357122,0.0,icsd-412524,"{19: 3, 67: 1, 14: 2, 8: 7}","[8, 14, 19, 67]",87142193671,K3Ho1Si2O7
K3ErSi2O7,mp-16597,3.7372000000000005,1.01851697,0.0,icsd-412525,"{19: 3, 68: 1, 14: 2, 8: 7}","[8, 14, 19, 68]",87142193681,K3Er1Si2O7
K3TmSi2O7,mp-16598,3.7555000000000005,1.02827021,0.0,icsd-412526,"{19: 3, 69: 1, 14: 2, 8: 7}","[8, 14, 19, 69]",87142193691,K3Tm1Si2O7
K3LuSi2O7,mp-557543,3.6132,1.06823742,0.0,icsd-412528,"{19: 3, 71: 1, 14: 2, 8: 7}","[8, 14, 19, 71]",87142193711,K3Lu1Si2O7
K6Si2O7,mp-30990,3.5108,0.57022846,0.0,icsd-17064,"{19: 6, 14: 2, 8: 7}","[8, 14, 19]",87142196,K6Si2O7
Sc2Si2O7,mp-5594,4.2788,2.66465528,0.0,icsd-16214,"{21: 2, 14: 2, 8: 7}","[8, 14, 21]",87142212,Sc2Si2O7
Cr4Si2Br2O7,mp-557963,2.2567,2.89731302,0.0,icsd-82687,"{24: 4, 14: 2, 35: 2, 8: 7}","[8, 14, 24, 35]",87142244352,Cr4Si2Br2O7
Sr2MnSi2O7,mp-1191740,2.8825,2.45302328,0.0,icsd-261227,"{38: 2, 25: 1, 14: 2, 8: 7}","[8, 14, 25, 38]",87142251382,Sr2Mn1Si2O7
Eu2MnSi2O7,mp-1190662,0.0,5.26627536,0.0,icsd-261225,"{63: 2, 25: 1, 14: 2, 8: 7}","[8, 14, 25, 63]",87142251632,Eu2Mn1Si2O7
BaMn2Si2O7,mp-1196057,2.6464000000000003,5.12157349,0.0,icsd-190700,"{56: 1, 25: 2, 14: 2, 8: 7}","[8, 14, 25, 56]",87142252561,Ba1Mn2Si2O7
BaFe2Si2O7,mp-1214455,0.0,3.41165553,0.0,pf-6521,"{56: 1, 26: 2, 14: 2, 8: 7}","[8, 14, 26, 56]",87142262561,Ba1Fe2Si2O7
Sr2CoSi2O7,mp-1208846,3.4006000000000003,2.3486338,0.0,pf-30495,"{38: 2, 27: 1, 14: 2, 8: 7}","[8, 14, 27, 38]",87142271382,Sr2Co1Si2O7
Ba2CoSi2O7,mp-510015,2.6655999999999995,2.2239644,0.0,icsd-281293,"{56: 2, 27: 1, 14: 2, 8: 7}","[8, 14, 27, 56]",87142271562,Ba2Co1Si2O7
BaCo2Si2O7,mp-19203,0.04479999999999995,3.34272351,0.0,icsd-74160,"{56: 1, 27: 2, 14: 2, 8: 7}","[8, 14, 27, 56]",87142272561,Ba1Co2Si2O7
Rb4CuSi2O7,mp-557618,0.7041,1.54312144,0.0,icsd-85405,"{37: 4, 29: 1, 14: 2, 8: 7}","[8, 14, 29, 37]",87142291374,Rb4Cu1Si2O7
Cs4CuSi2O7,mp-561495,0.5831,2.27147805,0.0,icsd-50444,"{55: 4, 29: 1, 14: 2, 8: 7}","[8, 14, 29, 55]",87142291554,Cs4Cu1Si2O7
Sr2ZnSi2O7,mp-1191240,3.8987000000000007,1.57768821,0.0,icsd-247476,"{38: 2, 30: 1, 14: 2, 8: 7}","[8, 14, 30, 38]",87142301382,Sr2Zn1Si2O7
Ba2ZnSi2O7,mp-558629,4.0027,1.4516318,0.0,icsd-409588,"{56: 2, 30: 1, 14: 2, 8: 7}","[8, 14, 30, 56]",87142301562,Ba2Zn1Si2O7
La4Si2Se3O7,mp-14912,2.2305,6.06346278,0.0,icsd-73825,"{57: 4, 14: 2, 34: 3, 8: 7}","[8, 14, 34, 57]",87142343574,La4Si2Se3O7
Pr4Si2Se3O7,mp-14836,2.3921,4.19690964,0.0,icsd-72309,"{59: 4, 14: 2, 34: 3, 8: 7}","[8, 14, 34, 59]",87142343594,Pr4Si2Se3O7
Rb6Si2O7,mp-18483,3.1390000000000002,0.93196831,0.0,icsd-411664,"{37: 6, 14: 2, 8: 7}","[8, 14, 37]",87142376,Rb6Si2O7
Y2Si2O7,mp-581644,4.566000000000001,3.10364141,0.0,icsd-173268,"{39: 2, 14: 2, 8: 7}","[8, 14, 39]",87142392,Y2Si2O7
In2Si2O7,mp-2874,2.7009000000000003,3.69451198,0.0,icsd-74897,"{49: 2, 14: 2, 8: 7}","[8, 14, 49]",87142492,In2Si2O7