formula,material_id,band_gap,efermi,energy_above_hull,database_IDs,comp_atoms,sorted_keys_comp_atoms,comp_number,new_formula
Tb(SiRu)2,mp-3678,0.0,6.85590082,0.0,icsd-55779,"{65: 1, 14: 2, 44: 2}","[14, 44, 65]",142442651,Tb1Si2Ru2
Dy(SiRu)2,mp-4177,0.0,6.83607036,0.0,icsd-55355,"{66: 1, 14: 2, 44: 2}","[14, 44, 66]",142442661,Dy1Si2Ru2
Ho(SiRu)2,mp-5720,0.0,6.78673995,0.0,icsd-56242,"{67: 1, 14: 2, 44: 2}","[14, 44, 67]",142442671,Ho1Si2Ru2
Er(SiRu)2,mp-5022,0.0,6.81343385,0.0,icsd-57266,"{68: 1, 14: 2, 44: 2}","[14, 44, 68]",142442681,Er1Si2Ru2
Tm(SiRu)2,mp-568371,0.0,6.78221391,0.0,icsd-650648,"{69: 1, 14: 2, 44: 2}","[14, 44, 69]",142442691,Tm1Si2Ru2
Lu(SiRu)2,mp-10453,0.0,6.78358781,0.0,icsd-90197,"{71: 1, 14: 2, 44: 2}","[14, 44, 71]",142442711,Lu1Si2Ru2
Th(SiRu)2,mp-5165,0.0,8.47811509,0.0,icsd-650642,"{90: 1, 14: 2, 44: 2}","[14, 44, 90]",142442901,Th1Si2Ru2
U(SiRu)2,mp-3388,0.0,9.51005104,0.0,icsd-650657,"{92: 1, 14: 2, 44: 2}","[14, 44, 92]",142442921,U1Si2Ru2
Np(SiRu)2,mp-3106,0.0,9.74424278,0.0,icsd-647202,"{93: 1, 14: 2, 44: 2}","[14, 44, 93]",142442931,Np1Si2Ru2
Pu(SiRu)2,mp-22559,0.0,9.27160458,0.0,icsd-604293,"{94: 1, 14: 2, 44: 2}","[14, 44, 94]",142442941,Pu1Si2Ru2
Ba(SiRh)2,mp-18655,0.0,5.26892063,0.0,icsd-50158,"{56: 1, 14: 2, 45: 2}","[14, 45, 56]",142452561,Ba1Si2Rh2
La(SiRh)2,mp-5936,0.0,8.56759413,0.0,icsd-641752,"{57: 1, 14: 2, 45: 2}","[14, 45, 57]",142452571,La1Si2Rh2
Ce(SiRh)2,mp-4090,0.0,8.45082986,0.0,icsd-621946,"{58: 1, 14: 2, 45: 2}","[14, 45, 58]",142452581,Ce1Si2Rh2
Ce3(SiRh)2,mp-978253,0.0,8.30279569,0.0,icsd-247291,"{58: 3, 14: 2, 45: 2}","[14, 45, 58]",142452583,Ce3Si2Rh2
Pr(SiRh)2,mp-4815,0.0,6.91960513,0.0,icsd-162013,"{59: 1, 14: 2, 45: 2}","[14, 45, 59]",142452591,Pr1Si2Rh2
Nd(SiRh)2,mp-3651,0.0,6.92122215,0.0,icsd-105284,"{60: 1, 14: 2, 45: 2}","[14, 45, 60]",142452601,Nd1Si2Rh2
Sm(SiRh)2,mp-3882,0.0,6.87537089,0.0,icsd-650312,"{62: 1, 14: 2, 45: 2}","[14, 45, 62]",142452621,Sm1Si2Rh2
Sm3(SiRh)2,mp-1208977,0.0,5.42944888,0.0,pf-24747,"{62: 3, 14: 2, 45: 2}","[14, 45, 62]",142452623,Sm3Si2Rh2
Eu(SiRh)2,mp-21383,0.0,6.25915842,0.0,icsd-602028,"{63: 1, 14: 2, 45: 2}","[14, 45, 63]",142452631,Eu1Si2Rh2
Gd(SiRh)2,mp-21240,0.0,6.96961072,0.0,icsd-636276,"{64: 1, 14: 2, 45: 2}","[14, 45, 64]",142452641,Gd1Si2Rh2
Tb(SiRh)2,mp-3097,0.0,7.11209439,0.0,icsd-55760,"{65: 1, 14: 2, 45: 2}","[14, 45, 65]",142452651,Tb1Si2Rh2
Dy(SiRh)2,mp-2893,0.0,7.11560753,0.0,icsd-630162,"{66: 1, 14: 2, 45: 2}","[14, 45, 66]",142452661,Dy1Si2Rh2
Ho(SiRh)2,mp-3895,0.0,7.0917583,0.0,icsd-639629,"{67: 1, 14: 2, 45: 2}","[14, 45, 67]",142452671,Ho1Si2Rh2
Er(SiRh)2,mp-5386,0.0,7.11915874,0.0,icsd-631023,"{68: 1, 14: 2, 45: 2}","[14, 45, 68]",142452681,Er1Si2Rh2
Tm(SiRh)2,mp-8528,0.0,7.11480341,0.0,icsd-62725,"{69: 1, 14: 2, 45: 2}","[14, 45, 69]",142452691,Tm1Si2Rh2
Lu(SiRh)2,mp-3108,0.0,7.09768129,0.0,icsd-642551,"{71: 1, 14: 2, 45: 2}","[14, 45, 71]",142452711,Lu1Si2Rh2
Th(SiRh)2,mp-4413,0.0,8.44707821,0.0,icsd-650337,"{90: 1, 14: 2, 45: 2}","[14, 45, 90]",142452901,Th1Si2Rh2
U(SiRh)2,mp-5556,0.0,9.56855197,0.0,icsd-659032,"{92: 1, 14: 2, 45: 2}","[14, 45, 92]",142452921,U1Si2Rh2
Np(SiRh)2,mp-20292,0.0,9.67800149,0.0,icsd-106958,"{93: 1, 14: 2, 45: 2}","[14, 45, 93]",142452931,Np1Si2Rh2
Pu(SiRh)2,mp-22657,0.0,9.79268975,0.0,icsd-604294,"{94: 1, 14: 2, 45: 2}","[14, 45, 94]",142452941,Pu1Si2Rh2
Si2Rh3,mp-1207013,0.0,7.98552817,0.0,pf-12076,"{14: 2, 45: 3}","[14, 45]",142453,Si2Rh3
LaSi2Rh3,mp-1102955,0.0,8.66233646,0.0,icsd-641743,"{57: 1, 14: 2, 45: 3}","[14, 45, 57]",142453571,La1Si2Rh3
La3Si2Rh3,mp-601852,0.0,8.1469801,0.0,icsd-155982,"{57: 3, 14: 2, 45: 3}","[14, 45, 57]",142453573,La3Si2Rh3
CeSi2Rh3,mp-1213768,0.0,8.77973005,0.0,pf-23098,"{58: 1, 14: 2, 45: 3}","[14, 45, 58]",142453581,Ce1Si2Rh3
Ce3Si2Rh3,mp-623044,0.0,7.92204349,0.0,icsd-83981,"{58: 3, 14: 2, 45: 3}","[14, 45, 58]",142453583,Ce3Si2Rh3
NdSi2Rh3,mp-1103026,0.0,6.98862432,0.0,icsd-645774,"{60: 1, 14: 2, 45: 3}","[14, 45, 60]",142453601,Nd1Si2Rh3
SmSi2Rh3,mp-568555,0.0,6.67040477,0.0,icsd-52074,"{62: 1, 14: 2, 45: 3}","[14, 45, 62]",142453621,Sm1Si2Rh3
GdSi2Rh3,mp-622508,0.0,6.83263032,0.0,icsd-53627,"{64: 1, 14: 2, 45: 3}","[14, 45, 64]",142453641,Gd1Si2Rh3
DySi2Rh3,mp-30621,0.0,6.74974964,0.0,icsd-103364,"{66: 1, 14: 2, 45: 3}","[14, 45, 66]",142453661,Dy1Si2Rh3
HoSi2Rh3,mp-571071,0.0,6.78543857,0.0,icsd-56243,"{67: 1, 14: 2, 45: 3}","[14, 45, 67]",142453671,Ho1Si2Rh3
ErSi2Rh3,mp-8535,0.0,7.01513761,0.0,icsd-62924,"{68: 1, 14: 2, 45: 3}","[14, 45, 68]",142453681,Er1Si2Rh3
Ho3Si2(SnRh3)3,mp-1105133,0.0,7.35584767,0.0,icsd-428555,"{67: 3, 14: 2, 50: 3, 45: 9}","[14, 45, 50, 67]",142459503673,Ho3Si2Sn3Rh9
La(SiPd)2,mp-4954,0.0,7.58221723,0.0,icsd-603881,"{57: 1, 14: 2, 46: 2}","[14, 46, 57]",142462571,La1Si2Pd2
Ce(SiPd)2,mp-3826,0.0,7.43495841,0.0,icsd-40913,"{58: 1, 14: 2, 46: 2}","[14, 46, 58]",142462581,Ce1Si2Pd2
Pr(SiPd)2,mp-3278,0.0,6.0225546,0.0,icsd-601261,"{59: 1, 14: 2, 46: 2}","[14, 46, 59]",142462591,Pr1Si2Pd2
Nd(SiPd)2,mp-4323,0.0,6.01614351,0.0,icsd-645719,"{60: 1, 14: 2, 46: 2}","[14, 46, 60]",142462601,Nd1Si2Pd2
Sm(SiPd)2,mp-4275,0.0,5.82225452,0.0,icsd-88119,"{62: 1, 14: 2, 46: 2}","[14, 46, 62]",142462621,Sm1Si2Pd2
Eu(SiPd)2,mp-20115,0.0,5.53294735,0.0,icsd-602027,"{63: 1, 14: 2, 46: 2}","[14, 46, 63]",142462631,Eu1Si2Pd2
Gd(SiPd)2,mp-19753,0.0,5.88127043,0.0,icsd-636178,"{64: 1, 14: 2, 46: 2}","[14, 46, 64]",142462641,Gd1Si2Pd2
Tb(SiPd)2,mp-4250,0.0,6.17288868,0.0,icsd-648870,"{65: 1, 14: 2, 46: 2}","[14, 46, 65]",142462651,Tb1Si2Pd2
Dy(SiPd)2,mp-3301,0.0,6.02894999,0.0,icsd-630091,"{66: 1, 14: 2, 46: 2}","[14, 46, 66]",142462661,Dy1Si2Pd2
Ho(SiPd)2,mp-4148,0.0,6.1666179,0.0,icsd-56236,"{67: 1, 14: 2, 46: 2}","[14, 46, 67]",142462671,Ho1Si2Pd2
Er(SiPd)2,mp-3218,0.0,6.07152881,0.0,icsd-630942,"{68: 1, 14: 2, 46: 2}","[14, 46, 68]",142462681,Er1Si2Pd2
Tm(SiPd)2,mp-571485,0.0,6.1371362,0.0,icsd-648879,"{69: 1, 14: 2, 46: 2}","[14, 46, 69]",142462691,Tm1Si2Pd2
Lu(SiPd)2,mp-3507,0.0,6.06505373,0.0,icsd-603882,"{71: 1, 14: 2, 46: 2}","[14, 46, 71]",142462711,Lu1Si2Pd2
Th(SiPd)2,mp-5508,0.0,7.59192116,0.0,icsd-648876,"{90: 1, 14: 2, 46: 2}","[14, 46, 90]",142462901,Th1Si2Pd2
U(SiPd)2,mp-4793,0.0,8.72655733,0.0,icsd-648883,"{92: 1, 14: 2, 46: 2}","[14, 46, 92]",142462921,U1Si2Pd2
Np(SiPd)2,mp-9042,0.0,8.85213964,0.0,icsd-73030,"{93: 1, 14: 2, 46: 2}","[14, 46, 93]",142462931,Np1Si2Pd2
Pu(SiPd)2,mp-20047,0.0,8.9422145,0.0,icsd-73033,"{94: 1, 14: 2, 46: 2}","[14, 46, 94]",142462941,Pu1Si2Pd2
Si2Pd9,mp-505071,0.0,5.66549297,0.0,icsd-648856,"{14: 2, 46: 9}","[14, 46]",142469,Si2Pd9
LaSi2Ag,mp-1025390,0.0,7.85796674,0.0,pf-4711,"{57: 1, 14: 2, 47: 1}","[14, 47, 57]",142471571,La1Si2Ag1
CeSi2Ag,mp-1080480,0.0,7.57026617,0.0,icsd-247421,"{58: 1, 14: 2, 47: 1}","[14, 47, 58]",142471581,Ce1Si2Ag1
PrSi2Ag,mp-1025554,0.0,6.30746657,0.0,pf-15224,"{59: 1, 14: 2, 47: 1}","[14, 47, 59]",142471591,Pr1Si2Ag1
NdSi2Ag,mp-1206055,0.0,6.16695483,0.0,pf-25782,"{60: 1, 14: 2, 47: 1}","[14, 47, 60]",142471601,Nd1Si2Ag1
Nd(SiAg)2,mp-31204,0.0,5.7637208,0.0,icsd-106695,"{60: 1, 14: 2, 47: 2}","[14, 47, 60]",142472601,Nd1Si2Ag2
Sm(SiAg)2,mp-567600,0.0,5.7070575,0.0,icsd-106696,"{62: 1, 14: 2, 47: 2}","[14, 47, 62]",142472621,Sm1Si2Ag2
Eu(SiAg)2,mp-22653,0.0,4.83352068,0.0,icsd-605133,"{63: 1, 14: 2, 47: 2}","[14, 47, 63]",142472631,Eu1Si2Ag2
Gd(SiAg)2,mp-21287,0.0,5.56994382,0.0,icsd-52574,"{64: 1, 14: 2, 47: 2}","[14, 47, 64]",142472641,Gd1Si2Ag2
Tb(SiAg)2,mp-4614,0.0,5.88973237,0.0,icsd-98340,"{65: 1, 14: 2, 47: 2}","[14, 47, 65]",142472651,Tb1Si2Ag2
Dy(SiAg)2,mp-1206850,0.0,5.86644834,0.0,pf-15304,"{66: 1, 14: 2, 47: 2}","[14, 47, 66]",142472661,Dy1Si2Ag2
La2InSi2,mp-1105259,0.0,8.12592253,0.0,icsd-193223,"{57: 2, 49: 1, 14: 2}","[14, 49, 57]",142491572,La2In1Si2
Ce2Si2Sn,mp-1205534,0.0,8.58725095,0.0,pf-32538,"{58: 2, 14: 2, 50: 1}","[14, 50, 58]",142501582,Ce2Si2Sn1
Tb5(SiSb)2,mp-1208415,0.0,5.35211165,0.0,pf-13219,"{65: 5, 14: 2, 51: 2}","[14, 51, 65]",142512655,Tb5Si2Sb2
Dy5(SiSb)2,mp-1212829,0.0,5.36356734,0.0,pf-23744,"{66: 5, 14: 2, 51: 2}","[14, 51, 66]",142512665,Dy5Si2Sb2
Ho5(SiSb)2,mp-1212206,0.0,5.28585343,0.0,pf-34251,"{67: 5, 14: 2, 51: 2}","[14, 51, 67]",142512675,Ho5Si2Sb2
Er5(SiSb)2,mp-1213158,0.0,5.33519492,0.0,pf-2797,"{68: 5, 14: 2, 51: 2}","[14, 51, 68]",142512685,Er5Si2Sb2
Tm5(SiSb)2,mp-11749,0.0,5.32555827,0.0,icsd-98943,"{69: 5, 14: 2, 51: 2}","[14, 51, 69]",142512695,Tm5Si2Sb2
BaSi2,mp-1477,0.7812999999999999,3.44813571,0.0,icsd-183151,"{56: 1, 14: 2}","[14, 56]",142561,Ba1Si2
BaLaSi2,mp-1078225,0.0,5.74236789,0.0,icsd-195765,"{56: 1, 57: 1, 14: 2}","[14, 56, 57]",142561571,Ba1La1Si2
Ba(SiIr)2,mp-14561,0.0,5.96177494,0.0,icsd-50159,"{56: 1, 14: 2, 77: 2}","[14, 56, 77]",142561772,Ba1Si2Ir2
LaSi2,mp-2062,0.0,8.95283268,0.0,icsd-25663,"{57: 1, 14: 2}","[14, 57]",142571,La1Si2
La(ReSi)2,mp-612861,0.0,8.17259766,0.0,icsd-200066,"{57: 1, 75: 2, 14: 2}","[14, 57, 75]",142571752,La1Re2Si2
La(SiOs)2,mp-567203,0.0,8.71836421,0.0,icsd-641620,"{57: 1, 14: 2, 76: 2}","[14, 57, 76]",142571762,La1Si2Os2
La(SiIr)2,mp-3585,0.0,9.67564084,0.0,icsd-44657,"{57: 1, 14: 2, 77: 2}","[14, 57, 77]",142571772,La1Si2Ir2
LaSi2Pt,mp-4283,0.0,8.76492351,0.0,icsd-54250,"{57: 1, 14: 2, 78: 1}","[14, 57, 78]",142571781,La1Si2Pt1
La(SiPt)2,mp-1080606,0.0,8.69955576,0.0,icsd-641715,"{57: 1, 14: 2, 78: 2}","[14, 57, 78]",142571782,La1Si2Pt2
La(SiAu)2,mp-11859,0.0,8.09514123,0.0,icsd-106686,"{57: 1, 14: 2, 79: 2}","[14, 57, 79]",142571792,La1Si2Au2
CeSi2,mp-1898,0.0,8.77943914,0.0,icsd-622204,"{58: 1, 14: 2}","[14, 58]",142581,Ce1Si2
Ce(Re2Si)2,mp-27861,0.0,7.82020114,0.0,icsd-27747,"{58: 1, 75: 4, 14: 2}","[14, 58, 75]",142581754,Ce1Re4Si2
Ce(SiOs)2,mp-4767,0.0,8.52787016,0.0,icsd-621744,"{58: 1, 14: 2, 76: 2}","[14, 58, 76]",142581762,Ce1Si2Os2
CeSi2Ir,mp-1079402,0.0,8.63336054,0.0,icsd-602571,"{58: 1, 14: 2, 77: 1}","[14, 58, 77]",142581771,Ce1Si2Ir1
Ce(SiIr)2,mp-21900,0.0,9.16477642,0.0,icsd-411678,"{58: 1, 14: 2, 77: 2}","[14, 58, 77]",142581772,Ce1Si2Ir2
CeSi2Ir3,mp-13475,0.0,9.81592116,0.0,icsd-79221,"{58: 1, 14: 2, 77: 3}","[14, 58, 77]",142581773,Ce1Si2Ir3
CeSi2Pt,mp-3284,0.0,8.32442654,0.0,icsd-246169,"{58: 1, 14: 2, 78: 1}","[14, 58, 78]",142581781,Ce1Si2Pt1
Ce(SiPt)2,mp-22438,0.0,8.66381406,0.0,icsd-621904,"{58: 1, 14: 2, 78: 2}","[14, 58, 78]",142581782,Ce1Si2Pt2
Ce(SiAu)2,mp-5173,0.0,7.89476372,0.0,icsd-58424,"{58: 1, 14: 2, 79: 2}","[14, 58, 79]",142581792,Ce1Si2Au2
Ce(SiAu2)2,mp-569496,0.0,6.91060253,0.0,icsd-418529,"{58: 1, 14: 2, 79: 4}","[14, 58, 79]",142581794,Ce1Si2Au4
PrSi2,mp-27760,0.0,7.06417817,0.0,icsd-649364,"{59: 1, 14: 2}","[14, 59]",142591,Pr1Si2
Pr(Re2Si)2,mp-1025309,0.0,6.74224519,0.0,icsd-649216,"{59: 1, 75: 4, 14: 2}","[14, 59, 75]",142591754,Pr1Re4Si2
Pr(SiOs)2,mp-5852,0.0,7.01200125,0.0,icsd-99059,"{59: 1, 14: 2, 76: 2}","[14, 59, 76]",142591762,Pr1Si2Os2
PrSi2Ir3,mp-1209310,0.0,8.29466549,0.0,pf-3997,"{59: 1, 14: 2, 77: 3}","[14, 59, 77]",142591773,Pr1Si2Ir3
Pr(SiPt)2,mp-567338,0.0,7.0358954,0.0,icsd-649210,"{59: 1, 14: 2, 78: 2}","[14, 59, 78]",142591782,Pr1Si2Pt2
Pr(SiAu)2,mp-31202,0.0,6.81431035,0.0,icsd-106688,"{59: 1, 14: 2, 79: 2}","[14, 59, 79]",142591792,Pr1Si2Au2
Pr3Si2,mp-1079937,0.0,4.64219176,0.0,icsd-649368,"{59: 3, 14: 2}","[14, 59]",142593,Pr3Si2
NdSi2,mp-884,0.0,6.84464515,0.0,icsd-645987,"{60: 1, 14: 2}","[14, 60]",142601,Nd1Si2
Nd(Re2Si)2,mp-505513,0.0,6.81581261,0.0,icsd-41773,"{60: 1, 75: 4, 14: 2}","[14, 60, 75]",142601754,Nd1Re4Si2
Nd(SiOs)2,mp-571586,0.0,6.99065953,0.0,icsd-645676,"{60: 1, 14: 2, 76: 2}","[14, 60, 76]",142601762,Nd1Si2Os2
Nd(SiIr)2,mp-567130,0.0,8.11015876,0.0,icsd-640869,"{60: 1, 14: 2, 77: 2}","[14, 60, 77]",142601772,Nd1Si2Ir2
NdSi2Ir3,mp-1209840,0.0,8.2372132,0.0,pf-23613,"{60: 1, 14: 2, 77: 3}","[14, 60, 77]",142601773,Nd1Si2Ir3
Nd(SiPt)2,mp-1084815,0.0,7.19179325,0.0,icsd-645746,"{60: 1, 14: 2, 78: 2}","[14, 60, 78]",142601782,Nd1Si2Pt2
Nd(SiAu)2,mp-5057,0.0,6.84191371,0.0,icsd-55939,"{60: 1, 14: 2, 79: 2}","[14, 60, 79]",142601792,Nd1Si2Au2
SmSi2,mp-13955,0.0,6.73100186,0.0,icsd-25667,"{62: 1, 14: 2}","[14, 62]",142621,Sm1Si2
Sm(Re2Si)2,mp-1104658,0.0,7.02955256,0.0,icsd-650115,"{62: 1, 75: 4, 14: 2}","[14, 62, 75]",142621754,Sm1Re4Si2
Sm(SiOs)2,mp-567408,0.0,6.94024009,0.0,icsd-647786,"{62: 1, 14: 2, 76: 2}","[14, 62, 76]",142621762,Sm1Si2Os2
Sm(SiIr)2,mp-12097,0.0,8.03859972,0.0,icsd-641000,"{62: 1, 14: 2, 77: 2}","[14, 62, 77]",142621772,Sm1Si2Ir2
Sm(SiPt)2,mp-10298,0.0,7.10874531,0.0,icsd-649619,"{62: 1, 14: 2, 78: 2}","[14, 62, 78]",142621782,Sm1Si2Pt2
Sm(SiAu)2,mp-13466,0.0,6.77653213,0.0,icsd-52675,"{62: 1, 14: 2, 79: 2}","[14, 62, 79]",142621792,Sm1Si2Au2
Sm3(SiIr)2,mp-29989,0.0,5.74415424,0.0,icsd-411734,"{62: 3, 14: 2, 77: 2}","[14, 62, 77]",142623772,Sm3Si2Ir2
EuSi2,mp-1072248,0.0,5.86239349,0.0,icsd-631683,"{63: 1, 14: 2}","[14, 63]",142631,Eu1Si2
Eu(SiIr)2,mp-21849,0.0,7.47950299,0.0,icsd-631364,"{63: 1, 14: 2, 77: 2}","[14, 63, 77]",142631772,Eu1Si2Ir2
EuSi2Pt,mp-1212688,0.0,6.16812962,0.0,pf-37371,"{63: 1, 14: 2, 78: 1}","[14, 63, 78]",142631781,Eu1Si2Pt1
Eu(SiPt)2,mp-1076931,0.0,6.55117814,0.0,icsd-631565,"{63: 1, 14: 2, 78: 2}","[14, 63, 78]",142631782,Eu1Si2Pt2
Eu(SiAu)2,mp-21229,0.0,5.80758737,0.0,icsd-611854,"{63: 1, 14: 2, 79: 2}","[14, 63, 79]",142631792,Eu1Si2Au2
GdSi2,mp-21192,0.0,6.73076708,0.0,icsd-636440,"{64: 1, 14: 2}","[14, 64]",142641,Gd1Si2
Gd(Re2Si)2,mp-1105253,0.0,7.08112088,0.0,icsd-636249,"{64: 1, 75: 4, 14: 2}","[14, 64, 75]",142641754,Gd1Re4Si2
Gd(SiOs)2,mp-21408,0.0,6.98101355,0.0,icsd-636121,"{64: 1, 14: 2, 76: 2}","[14, 64, 76]",142641762,Gd1Si2Os2
Gd(SiPt)2,mp-637220,0.0,7.16591466,0.0,icsd-106758,"{64: 1, 14: 2, 78: 2}","[14, 64, 78]",142641782,Gd1Si2Pt2
Gd(SiAu)2,mp-22615,0.0,6.59673339,0.0,icsd-52667,"{64: 1, 14: 2, 79: 2}","[14, 64, 79]",142641792,Gd1Si2Au2
Tb(SiOs)2,mp-5429,0.0,7.11750372,0.0,icsd-77771,"{65: 1, 14: 2, 76: 2}","[14, 65, 76]",142651762,Tb1Si2Os2
Tb(SiIr)2,mp-5752,0.0,8.17390356,0.0,icsd-641010,"{65: 1, 14: 2, 77: 2}","[14, 65, 77]",142651772,Tb1Si2Ir2
Tb(SiPt)2,mp-569737,0.0,7.19029892,0.0,icsd-649626,"{65: 1, 14: 2, 78: 2}","[14, 65, 78]",142651782,Tb1Si2Pt2
Tb(SiAu)2,mp-569577,0.0,6.96771319,0.0,icsd-55818,"{65: 1, 14: 2, 79: 2}","[14, 65, 79]",142651792,Tb1Si2Au2
Dy(SiOs)2,mp-12088,0.0,7.10040965,0.0,icsd-630053,"{66: 1, 14: 2, 76: 2}","[14, 66, 76]",142661762,Dy1Si2Os2
Dy(SiIr)2,mp-4065,0.0,8.17668794,0.0,icsd-629886,"{66: 1, 14: 2, 77: 2}","[14, 66, 77]",142661772,Dy1Si2Ir2
Dy(SiPt)2,mp-1080061,0.0,7.38055765,0.0,icsd-604564,"{66: 1, 14: 2, 78: 2}","[14, 66, 78]",142661782,Dy1Si2Pt2
Dy(SiAu)2,mp-2954,0.0,6.95819223,0.0,icsd-611805,"{66: 1, 14: 2, 79: 2}","[14, 66, 79]",142661792,Dy1Si2Au2
Ho(SiOs)2,mp-5219,0.0,7.04700159,0.0,icsd-56234,"{67: 1, 14: 2, 76: 2}","[14, 67, 76]",142671762,Ho1Si2Os2
Ho(SiIr)2,mp-567513,0.0,8.22151849,0.0,icsd-639357,"{67: 1, 14: 2, 77: 2}","[14, 67, 77]",142671772,Ho1Si2Ir2
Ho(SiPt)2,mp-16377,0.0,7.3004278,0.0,icsd-56238,"{67: 1, 14: 2, 78: 2}","[14, 67, 78]",142671782,Ho1Si2Pt2
Ho(SiAu)2,mp-569013,0.0,6.93465549,0.0,icsd-55944,"{67: 1, 14: 2, 79: 2}","[14, 67, 79]",142671792,Ho1Si2Au2
Er(SiOs)2,mp-3958,0.0,7.06847865,0.0,icsd-630906,"{68: 1, 14: 2, 76: 2}","[14, 68, 76]",142681762,Er1Si2Os2
Er(SiIr)2,mp-3907,0.0,8.18495728,0.0,icsd-57231,"{68: 1, 14: 2, 77: 2}","[14, 68, 77]",142681772,Er1Si2Ir2
Er(SiPt)2,mp-1079518,0.0,7.32404479,0.0,icsd-630986,"{68: 1, 14: 2, 78: 2}","[14, 68, 78]",142681782,Er1Si2Pt2
Tm(SiOs)2,mp-570217,0.0,7.04129,0.0,icsd-647796,"{69: 1, 14: 2, 76: 2}","[14, 69, 76]",142691762,Tm1Si2Os2
Tm(SiPt)2,mp-7108,0.0,7.19481097,0.0,icsd-649636,"{69: 1, 14: 2, 78: 2}","[14, 69, 78]",142691782,Tm1Si2Pt2
Lu(SiOs)2,mp-12101,0.0,7.0164099,0.0,icsd-642482,"{71: 1, 14: 2, 76: 2}","[14, 71, 76]",142711762,Lu1Si2Os2
Hf3Si2,mp-2105,0.0,6.47767337,0.0,icsd-638913,"{72: 3, 14: 2}","[14, 72]",142723,Hf3Si2
TaSi2,mp-11192,0.0,9.28798202,0.0,icsd-96028,"{73: 1, 14: 2}","[14, 73]",142731,Ta1Si2
Si2W,mp-1620,0.0,10.16406565,0.0,icsd-652548,"{14: 2, 74: 1}","[14, 74]",142741,Si2W1
Th(Re2Si)2,mp-505429,0.0,8.0906864,0.0,icsd-402015,"{90: 1, 75: 4, 14: 2}","[14, 75, 90]",142754901,Th1Re4Si2
Si2Os,mp-17123,0.6496999999999993,9.39199799,0.0,icsd-603889,"{14: 2, 76: 1}","[14, 76]",142761,Si2Os1
Th(SiOs)2,mp-3166,0.0,8.57799335,0.0,icsd-603982,"{90: 1, 14: 2, 76: 2}","[14, 76, 90]",142762901,Th1Si2Os2
U(SiOs)2,mp-5786,0.0,9.73129256,0.0,icsd-647799,"{92: 1, 14: 2, 76: 2}","[14, 76, 92]",142762921,U1Si2Os2
Np(SiOs)2,mp-9033,0.0,9.89177709,0.0,icsd-73034,"{93: 1, 14: 2, 76: 2}","[14, 76, 93]",142762931,Np1Si2Os2
Pu(SiOs)2,mp-21225,0.0,9.94325967,0.0,icsd-604295,"{94: 1, 14: 2, 76: 2}","[14, 76, 94]",142762941,Pu1Si2Os2
Th(SiIr)2,mp-1080037,0.0,9.06123696,0.0,icsd-641013,"{90: 1, 14: 2, 77: 2}","[14, 77, 90]",142772901,Th1Si2Ir2
U(SiIr)2,mp-22758,0.0,10.51989848,0.0,icsd-604000,"{92: 1, 14: 2, 77: 2}","[14, 77, 92]",142772921,U1Si2Ir2
Np(SiIr)2,mp-22433,0.0,10.44584024,0.0,icsd-73035,"{93: 1, 14: 2, 77: 2}","[14, 77, 93]",142772931,Np1Si2Ir2
Pu(SiIr)2,mp-505143,0.0,10.63938561,0.0,icsd-73039,"{94: 1, 14: 2, 77: 2}","[14, 77, 94]",142772941,Pu1Si2Ir2
Th(SiPt)2,mp-1079221,0.0,8.76806813,0.0,icsd-603979,"{90: 1, 14: 2, 78: 2}","[14, 78, 90]",142782901,Th1Si2Pt2
U(SiPt)2,mp-21101,0.0,9.83066435,0.0,icsd-649638,"{92: 1, 14: 2, 78: 2}","[14, 78, 92]",142782921,U1Si2Pt2
Np(SiPt)2,mp-505142,0.0,10.02426678,0.0,icsd-73036,"{93: 1, 14: 2, 78: 2}","[14, 78, 93]",142782931,Np1Si2Pt2
Pu(SiPt)2,mp-867963,0.0,9.72082243,0.0,icsd-604296,"{94: 1, 14: 2, 78: 2}","[14, 78, 94]",142782941,Pu1Si2Pt2
Th(SiAu)2,mp-16250,0.0,8.2591877,0.0,icsd-52676,"{90: 1, 14: 2, 79: 2}","[14, 79, 90]",142792901,Th1Si2Au2
Np(SiAu)2,mp-20166,0.0,9.07433701,0.0,icsd-73037,"{93: 1, 14: 2, 79: 2}","[14, 79, 93]",142792931,Np1Si2Au2
ThSi2,mp-7497,0.0,8.60954917,0.0,icsd-15449,"{90: 1, 14: 2}","[14, 90]",142901,Th1Si2
Th3Si2,mp-1079146,0.0,7.75968177,0.0,icsd-652398,"{90: 3, 14: 2}","[14, 90]",142903,Th3Si2
USi2,mp-980,0.0,10.72841894,0.0,icsd-31646,"{92: 1, 14: 2}","[14, 92]",142921,U1Si2
NpSi2,mp-21298,0.0,11.07868757,0.0,icsd-31644,"{93: 1, 14: 2}","[14, 93]",142931,Np1Si2
PuSi2,mp-10186,0.0,10.7018798,0.0,icsd-44867,"{94: 1, 14: 2}","[14, 94]",142941,Pu1Si2
Si3P2Pt,mp-29157,0.6067,7.11034174,0.0,icsd-84944,"{14: 3, 15: 2, 78: 1}","[14, 15, 78]",143152781,Si3P2Pt1
Si3Ag3(SnP3)2,mp-18310,0.26730000000000054,6.30574918,0.0,icsd-52595,"{14: 3, 47: 3, 50: 2, 15: 6}","[14, 15, 47, 50]",143156473502,Si3Ag3Sn2P6
Tb4(SiS4)3,mp-16402,2.3660999999999994,2.99897137,0.0,icsd-412379,"{65: 4, 14: 3, 16: 12}","[14, 16, 65]",1431612654,Tb4Si3S12
La3Si3Cl2,mp-29559,0.0,7.3211766,0.0,icsd-408031,"{57: 3, 14: 3, 17: 2}","[14, 17, 57]",143172573,La3Si3Cl2
K(SiAs)3,mp-1211981,1.4134999999999995,4.27476046,0.0,pf-30908,"{19: 1, 14: 3, 33: 3}","[14, 19, 33]",143191333,K1Si3As3
Ca10Si3Pt7,mp-1205012,0.0,4.4820489,0.0,icsd-424522,"{20: 10, 14: 3, 78: 7}","[14, 20, 78]",1432010787,Ca10Si3Pt7
CaSi3Ir,mp-1068653,0.0,7.37293529,0.0,icsd-181447,"{20: 1, 14: 3, 77: 1}","[14, 20, 77]",143201771,Ca1Si3Ir1
CaSi3Pt,mp-1069604,0.0,7.51326303,0.0,icsd-180963,"{20: 1, 14: 3, 78: 1}","[14, 20, 78]",143201781,Ca1Si3Pt1
Ca2Si3Ag,mp-29570,0.0,5.00004343,0.0,icsd-410522,"{20: 2, 14: 3, 47: 1}","[14, 20, 47]",143202471,Ca2Si3Ag1
Ca4Si3Pd4,mp-17185,0.0,4.84735027,0.0,icsd-74358,"{20: 4, 14: 3, 46: 4}","[14, 20, 46]",143204464,Ca4Si3Pd4
Ca5Si3,mp-793,0.0,3.47737053,0.0,icsd-93699,"{20: 5, 14: 3}","[14, 20]",143205,Ca5Si3
Sc3Fe2Si3,mp-4755,0.0,6.40423185,0.0,icsd-84204,"{21: 3, 26: 2, 14: 3}","[14, 21, 26]",143213262,Sc3Fe2Si3
Sc3Si3Ru,mp-1193608,0.0,6.50687127,0.0,icsd-421254,"{21: 3, 14: 3, 44: 1}","[14, 21, 44]",143213441,Sc3Si3Ru1
Sc3Si3Rh,mp-1193822,0.0,6.56789205,0.0,icsd-421255,"{21: 3, 14: 3, 45: 1}","[14, 21, 45]",143213451,Sc3Si3Rh1
Sc3Si3Ir,mp-1194432,0.0,7.02514673,0.0,icsd-421256,"{21: 3, 14: 3, 77: 1}","[14, 21, 77]",143213771,Sc3Si3Ir1
Sc3Si3Pt,mp-1194390,0.0,6.8103628,0.0,icsd-421257,"{21: 3, 14: 3, 78: 1}","[14, 21, 78]",143213781,Sc3Si3Pt1