formula,material_id,band_gap,efermi,energy_above_hull,database_IDs,comp_atoms,sorted_keys_comp_atoms,comp_number,new_formula
Y2Mn3Si5,mp-1198388,0.0,7.32433431,0.0,icsd-643699,"{39: 2, 25: 3, 14: 5}","[14, 25, 39]",145253392,Y2Mn3Si5
Tb2Mn3Si5,mp-639228,0.0,7.22461582,0.0,icsd-85987,"{65: 2, 25: 3, 14: 5}","[14, 25, 65]",145253652,Tb2Mn3Si5
Dy2Mn3Si5,mp-505334,0.0,7.20657795,0.0,icsd-85988,"{66: 2, 25: 3, 14: 5}","[14, 25, 66]",145253662,Dy2Mn3Si5
Ho2Mn3Si5,mp-505335,0.0,7.157076,0.0,icsd-85989,"{67: 2, 25: 3, 14: 5}","[14, 25, 67]",145253672,Ho2Mn3Si5
Er2Mn3Si5,mp-622190,0.0,7.28959238,0.0,icsd-95243,"{68: 2, 25: 3, 14: 5}","[14, 25, 68]",145253682,Er2Mn3Si5
Tm2Mn3Si5,mp-505330,0.0,7.19902085,0.0,icsd-85844,"{69: 2, 25: 3, 14: 5}","[14, 25, 69]",145253692,Tm2Mn3Si5
Lu2Mn3Si5,mp-1203732,0.0,7.31594563,0.0,icsd-642435,"{71: 2, 25: 3, 14: 5}","[14, 25, 71]",145253712,Lu2Mn3Si5
U2Mn3Si5,mp-21531,0.0,10.33772191,0.0,icsd-20929,"{92: 2, 25: 3, 14: 5}","[14, 25, 92]",145253922,U2Mn3Si5
Y2Fe3Si5,mp-1197725,0.0,7.45858883,0.0,icsd-633645,"{39: 2, 26: 3, 14: 5}","[14, 26, 39]",145263392,Y2Fe3Si5
Tb2Fe3Si5,mp-22468,0.0,7.33807577,0.0,icsd-53550,"{65: 2, 26: 3, 14: 5}","[14, 26, 65]",145263652,Tb2Fe3Si5
Dy2Fe3Si5,mp-669393,0.0,7.39151503,0.0,icsd-629666,"{66: 2, 26: 3, 14: 5}","[14, 26, 66]",145263662,Dy2Fe3Si5
Ho2Fe3Si5,mp-1200585,0.0,7.28457321,0.0,icsd-632350,"{67: 2, 26: 3, 14: 5}","[14, 26, 67]",145263672,Ho2Fe3Si5
Er2Fe3Si5,mp-680269,0.0,7.41851004,0.0,icsd-53390,"{68: 2, 26: 3, 14: 5}","[14, 26, 68]",145263682,Er2Fe3Si5
Tm2Fe3Si5,mp-1196684,0.0,7.364653,0.0,icsd-633602,"{69: 2, 26: 3, 14: 5}","[14, 26, 69]",145263692,Tm2Fe3Si5
Lu2Fe3Si5,mp-541557,0.0,7.5212557,0.0,icsd-84198,"{71: 2, 26: 3, 14: 5}","[14, 26, 71]",145263712,Lu2Fe3Si5
U2Fe3Si5,mp-1105639,0.0,10.13223969,0.0,icsd-184479,"{92: 2, 26: 3, 14: 5}","[14, 26, 92]",145263922,U2Fe3Si5
Y2Co3Si5,mp-1188435,0.0,7.34769393,0.0,icsd-625127,"{39: 2, 27: 3, 14: 5}","[14, 27, 39]",145273392,Y2Co3Si5
Ce2Co3Si5,mp-1189037,0.0,8.78428249,0.0,icsd-620792,"{58: 2, 27: 3, 14: 5}","[14, 27, 58]",145273582,Ce2Co3Si5
Tb2Co3Si5,mp-10318,0.0,7.22262836,0.0,icsd-88273,"{65: 2, 27: 3, 14: 5}","[14, 27, 65]",145273652,Tb2Co3Si5
Dy2Co3Si5,mp-15898,0.0,7.3660869,0.0,icsd-622702,"{66: 2, 27: 3, 14: 5}","[14, 27, 66]",145273662,Dy2Co3Si5
Ho2Co3Si5,mp-977345,0.0,7.08882477,0.0,icsd-623902,"{67: 2, 27: 3, 14: 5}","[14, 27, 67]",145273672,Ho2Co3Si5
Er2Co3Si5,mp-1190062,0.0,7.24469956,0.0,icsd-622857,"{68: 2, 27: 3, 14: 5}","[14, 27, 68]",145273682,Er2Co3Si5
Tm2Co3Si5,mp-971855,0.0,7.2015888,0.0,icsd-625098,"{69: 2, 27: 3, 14: 5}","[14, 27, 69]",145273692,Tm2Co3Si5
Lu2Co3Si5,mp-15826,0.0,7.3819814,0.0,icsd-76349,"{71: 2, 27: 3, 14: 5}","[14, 27, 71]",145273712,Lu2Co3Si5
U2Co3Si5,mp-21178,0.0,10.21394371,0.0,icsd-602485,"{92: 2, 27: 3, 14: 5}","[14, 27, 92]",145273922,U2Co3Si5
Y2Si5Rh3,mp-9882,0.0,7.51737158,0.0,icsd-40760,"{39: 2, 14: 5, 45: 3}","[14, 39, 45]",145392453,Y2Si5Rh3
Y2Re3Si5,mp-1195855,0.0,7.42852393,0.0,icsd-650136,"{39: 2, 75: 3, 14: 5}","[14, 39, 75]",145392753,Y2Re3Si5
Y2Si5Ir3,mp-1189012,0.0,7.98792253,0.0,icsd-641029,"{39: 2, 14: 5, 77: 3}","[14, 39, 77]",145392773,Y2Si5Ir3
Y4Si5Ir9,mp-1207756,0.0,7.86370775,0.0,pf-30011,"{39: 4, 14: 5, 77: 9}","[14, 39, 77]",145394779,Y4Si5Ir9
Sm2Si5Ru3,mp-697708,0.0,7.59121785,0.0,icsd-90300,"{62: 2, 14: 5, 44: 3}","[14, 44, 62]",145443622,Sm2Si5Ru3
Tb2Si5Ru3,mp-16478,0.0,7.56478591,0.0,icsd-57487,"{65: 2, 14: 5, 44: 3}","[14, 44, 65]",145443652,Tb2Si5Ru3
Er2Si5Ru3,mp-8808,0.0,7.58484994,0.0,icsd-68792,"{68: 2, 14: 5, 44: 3}","[14, 44, 68]",145443682,Er2Si5Ru3
Lu2Si5Ru3,mp-669402,0.0,7.6497769,0.0,icsd-90196,"{71: 2, 14: 5, 44: 3}","[14, 44, 71]",145443712,Lu2Si5Ru3
U2Si5Ru3,mp-1188211,0.0,10.0954236,0.0,icsd-602487,"{92: 2, 14: 5, 44: 3}","[14, 44, 92]",145443922,U2Si5Ru3
La2Si5Rh3,mp-8620,0.0,8.73104086,0.0,icsd-40427,"{57: 2, 14: 5, 45: 3}","[14, 45, 57]",145453572,La2Si5Rh3
Nd2Si5Rh3,mp-1209907,0.0,7.12638353,0.0,pf-32580,"{60: 2, 14: 5, 45: 3}","[14, 45, 60]",145453602,Nd2Si5Rh3
Sm2Si5Rh3,mp-1208907,0.0,7.17943272,0.0,pf-34257,"{62: 2, 14: 5, 45: 3}","[14, 45, 62]",145453622,Sm2Si5Rh3
Dy2Si5Rh3,mp-1188825,0.0,7.46325132,0.0,icsd-600471,"{66: 2, 14: 5, 45: 3}","[14, 45, 66]",145453662,Dy2Si5Rh3
Ho2Si5Rh3,mp-1212337,0.0,7.2819166,0.0,pf-13229,"{67: 2, 14: 5, 45: 3}","[14, 45, 67]",145453672,Ho2Si5Rh3
Er2Si5Rh3,mp-1212876,0.0,7.31695839,0.0,pf-14578,"{68: 2, 14: 5, 45: 3}","[14, 45, 68]",145453682,Er2Si5Rh3
Si5Rh4,mp-568792,0.0,8.25298902,0.0,icsd-24355,"{14: 5, 45: 4}","[14, 45]",145454,Si5Rh4
Ce2Si5Pd3,mp-1213852,0.0,8.28312809,0.0,pf-35346,"{58: 2, 14: 5, 46: 3}","[14, 46, 58]",145463582,Ce2Si5Pd3
Sm2Si5Pd3,mp-1208894,0.0,7.08151921,0.0,pf-37410,"{62: 2, 14: 5, 46: 3}","[14, 46, 62]",145463622,Sm2Si5Pd3
Ce2Re3Si5,mp-1197667,0.0,8.79180388,0.0,icsd-621919,"{58: 2, 75: 3, 14: 5}","[14, 58, 75]",145582753,Ce2Re3Si5
Ce2Si5Ir3,mp-1105703,0.0,9.47294308,0.0,icsd-621432,"{58: 2, 14: 5, 77: 3}","[14, 58, 77]",145582773,Ce2Si5Ir3
Pr2Re3Si5,mp-1198710,0.0,7.15941718,0.0,icsd-649214,"{59: 2, 75: 3, 14: 5}","[14, 59, 75]",145592753,Pr2Re3Si5
Pr2Si5Pt3,mp-1106159,0.0,7.72586182,0.0,icsd-184982,"{59: 2, 14: 5, 78: 3}","[14, 59, 78]",145592783,Pr2Si5Pt3
Nd2Re3Si5,mp-22401,0.0,7.19110813,0.0,icsd-10085,"{60: 2, 75: 3, 14: 5}","[14, 60, 75]",145602753,Nd2Re3Si5
Sm2Re3Si5,mp-1197504,0.0,7.12940889,0.0,icsd-650116,"{62: 2, 75: 3, 14: 5}","[14, 62, 75]",145622753,Sm2Re3Si5
Sm2Si5Pt3,mp-1208891,0.0,7.72161356,0.0,pf-32781,"{62: 2, 14: 5, 78: 3}","[14, 62, 78]",145622783,Sm2Si5Pt3
Eu2Si5Pt3,mp-1105156,0.0,6.77393471,0.0,icsd-428478,"{63: 2, 14: 5, 78: 3}","[14, 63, 78]",145632783,Eu2Si5Pt3
Gd2Re3Si5,mp-1198764,0.0,7.29393384,0.0,icsd-237715,"{64: 2, 75: 3, 14: 5}","[14, 64, 75]",145642753,Gd2Re3Si5
Tb2Re3Si5,mp-1203495,0.0,7.38800275,0.0,icsd-650120,"{65: 2, 75: 3, 14: 5}","[14, 65, 75]",145652753,Tb2Re3Si5
Tb2Si5Os3,mp-542754,0.0,7.87000469,0.0,icsd-54309,"{65: 2, 14: 5, 76: 3}","[14, 65, 76]",145652763,Tb2Si5Os3
Tb2Si5Ir3,mp-1187284,0.0,7.96797936,0.0,icsd-604548,"{65: 2, 14: 5, 77: 3}","[14, 65, 77]",145652773,Tb2Si5Ir3
Dy2Re3Si5,mp-1196838,0.0,7.36479457,0.0,icsd-630141,"{66: 2, 75: 3, 14: 5}","[14, 66, 75]",145662753,Dy2Re3Si5
Ho2Re3Si5,mp-1204182,0.0,7.34626335,0.0,icsd-639617,"{67: 2, 75: 3, 14: 5}","[14, 67, 75]",145672753,Ho2Re3Si5
Er2Re3Si5,mp-1204807,0.0,7.3446679,0.0,icsd-630998,"{68: 2, 75: 3, 14: 5}","[14, 68, 75]",145682753,Er2Re3Si5
Tm2Re3Si5,mp-1200427,0.0,7.37710747,0.0,icsd-650126,"{69: 2, 75: 3, 14: 5}","[14, 69, 75]",145692753,Tm2Re3Si5
Lu2Si5Ir3,mp-568336,0.0,7.90984439,0.0,icsd-153662,"{71: 2, 14: 5, 77: 3}","[14, 71, 77]",145712773,Lu2Si5Ir3
Np2Re3Si5,mp-1202868,0.0,10.15653409,0.0,icsd-658194,"{93: 2, 75: 3, 14: 5}","[14, 75, 93]",145753932,Np2Re3Si5
Pu2Re3Si5,mp-1199331,0.0,10.22247248,0.0,icsd-658195,"{94: 2, 75: 3, 14: 5}","[14, 75, 94]",145753942,Pu2Re3Si5
U2Si5Os3,mp-1105580,0.0,10.1364974,0.0,icsd-647798,"{92: 2, 14: 5, 76: 3}","[14, 76, 92]",145763922,U2Si5Os3
Si5Ir3,mp-2084,0.9666999999999994,9.07469531,0.0,icsd-62055,"{14: 5, 77: 3}","[14, 77]",145773,Si5Ir3
Si5Pt6,mp-29661,0.0,8.37421645,0.0,icsd-649605,"{14: 5, 78: 6}","[14, 78]",145786,Si5Pt6
Sc4Si6Ir7,mp-1189689,0.0,8.26036084,0.0,icsd-640978,"{21: 4, 14: 6, 77: 7}","[14, 21, 77]",146214777,Sc4Si6Ir7
Hf3(Mn2Si3)2,mp-1212656,0.0,8.15124187,0.0,pf-11285,"{72: 3, 25: 4, 14: 6}","[14, 25, 72]",146254723,Hf3Mn4Si6
Zr3(Cu2Si3)2,mp-27961,0.0,7.78545084,0.0,icsd-30732,"{40: 3, 29: 4, 14: 6}","[14, 29, 40]",146294403,Zr3Cu4Si6
Ba13Si6(Sn4As11)2,mp-1197065,0.7270000000000003,3.78134911,0.0,icsd-426155,"{56: 13, 14: 6, 50: 8, 33: 22}","[14, 33, 50, 56]",14633225085613,Ba13Si6Sn8As22
U4Si6Tc7,mp-20471,0.0,10.35465884,0.0,icsd-80520,"{92: 4, 14: 6, 43: 7}","[14, 43, 92]",146437924,U4Si6Tc7
La3(Si3Pd10)2,mp-1211466,0.0,6.74032946,0.0,pf-38720,"{57: 3, 14: 6, 46: 20}","[14, 46, 57]",1464620573,La3Si6Pd20
Ce3(Si3Pd10)2,mp-1192814,0.0,6.75441344,0.0,icsd-657980,"{58: 3, 14: 6, 46: 20}","[14, 46, 58]",1464620583,Ce3Si6Pd20
Pr3(Si3Pd10)2,mp-1209429,0.0,5.77701489,0.0,pf-38215,"{59: 3, 14: 6, 46: 20}","[14, 46, 59]",1464620593,Pr3Si6Pd20
Nd3(Si3Pd10)2,mp-1209902,0.0,5.77409258,0.0,pf-41090,"{60: 3, 14: 6, 46: 20}","[14, 46, 60]",1464620603,Nd3Si6Pd20
Sm3(Si3Pd10)2,mp-1208981,0.0,5.74703408,0.0,pf-9746,"{62: 3, 14: 6, 46: 20}","[14, 46, 62]",1464620623,Sm3Si6Pd20
Dy3(Si3Pd10)2,mp-1213199,0.0,5.69513871,0.0,pf-27833,"{66: 3, 14: 6, 46: 20}","[14, 46, 66]",1464620663,Dy3Si6Pd20
Ho3(Si3Pd10)2,mp-1212354,0.0,5.84398291,0.0,pf-38293,"{67: 3, 14: 6, 46: 20}","[14, 46, 67]",1464620673,Ho3Si6Pd20
Er3(Si3Pd10)2,mp-1212872,0.0,5.83397206,0.0,pf-39862,"{68: 3, 14: 6, 46: 20}","[14, 46, 68]",1464620683,Er3Si6Pd20
Tm3(Si3Pd10)2,mp-1208056,0.0,5.88254725,0.0,pf-8449,"{69: 3, 14: 6, 46: 20}","[14, 46, 69]",1464620693,Tm3Si6Pd20
U3(Si3Pd10)2,mp-630265,0.0,7.32079036,0.0,icsd-95561,"{92: 3, 14: 6, 46: 20}","[14, 46, 92]",1464620923,U3Si6Pd20
Ce2(Si2Pd7)3,mp-1193751,0.0,6.27183117,0.0,icsd-174079,"{58: 2, 14: 6, 46: 21}","[14, 46, 58]",1464621582,Ce2Si6Pd21
Ba8Si6Sn,mp-1200444,0.2588999999999997,3.43439672,0.0,icsd-169999,"{56: 8, 14: 6, 50: 1}","[14, 50, 56]",146501568,Ba8Si6Sn1
Ba5LaSi6,mp-1195178,0.0,4.41287475,0.0,icsd-195766,"{56: 5, 57: 1, 14: 6}","[14, 56, 57]",146565571,Ba5La1Si6
U4Re7Si6,mp-504442,0.0,9.93917815,0.0,icsd-2471,"{92: 4, 75: 7, 14: 6}","[14, 75, 92]",146757924,U4Re7Si6
CaSi7Ir3,mp-1191649,0.0,8.65384329,0.0,icsd-181449,"{20: 1, 14: 7, 77: 3}","[14, 20, 77]",147201773,Ca1Si7Ir3
ScSi7Ir3,mp-13620,0.0,9.91541798,0.0,icsd-15244,"{21: 1, 14: 7, 77: 3}","[14, 21, 77]",147211773,Sc1Si7Ir3
Sc4Mn4Si7,mp-1209006,0.0,7.40517007,0.0,pf-39886,"{21: 4, 25: 4, 14: 7}","[14, 21, 25]",147214254,Sc4Mn4Si7
Sc5Si7Pt9,mp-13573,0.0,7.6942888,0.0,icsd-420356,"{21: 5, 14: 7, 78: 9}","[14, 21, 78]",147215789,Sc5Si7Pt9
Sc6Co16Si7,mp-1192939,0.0,6.71464192,0.0,icsd-624944,"{21: 6, 27: 16, 14: 7}","[14, 21, 27]",1472162716,Sc6Co16Si7
Ti4Co4Si7,mp-1193657,0.0,8.72955373,0.0,icsd-625092,"{22: 4, 27: 4, 14: 7}","[14, 22, 27]",147224274,Ti4Co4Si7
Mn4Si7,mp-680339,0.7555999999999994,9.77242132,0.0,icsd-97393,"{25: 4, 14: 7}","[14, 25]",147254,Mn4Si7
Zr6Fe16Si7,mp-1192960,0.0,6.90100489,0.0,icsd-601928,"{40: 6, 26: 16, 14: 7}","[14, 26, 40]",1472616406,Zr6Fe16Si7
Nb6Fe16Si7,mp-542995,0.0,7.37769861,0.0,icsd-107097,"{41: 6, 26: 16, 14: 7}","[14, 26, 41]",1472616416,Nb6Fe16Si7
Hf6Fe16Si7,mp-640158,0.0,7.06747066,0.0,icsd-150951,"{72: 6, 26: 16, 14: 7}","[14, 26, 72]",1472616726,Hf6Fe16Si7
Ta6Fe16Si7,mp-542996,0.0,7.62993401,0.0,icsd-107098,"{73: 6, 26: 16, 14: 7}","[14, 26, 73]",1472616736,Ta6Fe16Si7
U3Fe2Si7,mp-27609,0.0,10.25137261,0.0,icsd-20337,"{92: 3, 26: 2, 14: 7}","[14, 26, 92]",147262923,U3Fe2Si7
Zr4Fe4Si7,mp-17435,0.0,7.6164442,0.0,icsd-633675,"{40: 4, 26: 4, 14: 7}","[14, 26, 40]",147264404,Zr4Fe4Si7
Nb4Fe4Si7,mp-1192618,0.0,8.29669915,0.0,icsd-632821,"{41: 4, 26: 4, 14: 7}","[14, 26, 41]",147264414,Nb4Fe4Si7
Ta4Fe4Si7,mp-1193899,0.0,8.69088091,0.0,icsd-633569,"{73: 4, 26: 4, 14: 7}","[14, 26, 73]",147264734,Ta4Fe4Si7
Zr6Co16Si7,mp-672680,0.0,6.83291184,0.0,icsd-625143,"{40: 6, 27: 16, 14: 7}","[14, 27, 40]",1472716406,Zr6Co16Si7
Nb6Co16Si7,mp-541938,0.0,7.3132234,0.0,icsd-624311,"{41: 6, 27: 16, 14: 7}","[14, 27, 41]",1472716416,Nb6Co16Si7
Hf6Co16Si7,mp-672689,0.0,7.06489935,0.0,icsd-109120,"{72: 6, 27: 16, 14: 7}","[14, 27, 72]",1472716726,Hf6Co16Si7
Ta6Co16Si7,mp-570661,0.0,7.56467397,0.0,icsd-625048,"{73: 6, 27: 16, 14: 7}","[14, 27, 73]",1472716736,Ta6Co16Si7
U3Co2Si7,mp-1103185,0.0,10.30428408,0.0,icsd-625106,"{92: 3, 27: 2, 14: 7}","[14, 27, 92]",147272923,U3Co2Si7
Zr4Co4Si7,mp-1194045,0.0,7.87305235,0.0,icsd-625145,"{40: 4, 27: 4, 14: 7}","[14, 27, 40]",147274404,Zr4Co4Si7
Nb4Co4Si7,mp-984586,0.0,8.43539878,0.0,icsd-624309,"{41: 4, 27: 4, 14: 7}","[14, 27, 41]",147274414,Nb4Co4Si7
Hf4Co4Si7,mp-976184,0.0,8.23264394,0.0,icsd-623791,"{72: 4, 27: 4, 14: 7}","[14, 27, 72]",147274724,Hf4Co4Si7
Ta4Co4Si7,mp-1192706,0.0,8.92500367,0.0,icsd-625051,"{73: 4, 27: 4, 14: 7}","[14, 27, 73]",147274734,Ta4Co4Si7
K2SiH4(NO)2,mp-697910,3.7996,0.31385142,0.0,icsd-73152,"{19: 2, 14: 1, 1: 4, 7: 2, 8: 2}","[1, 7, 8, 14, 19]",147282141192,K2Si1H4N2O2
La6Si7Br3,mp-29560,0.0,7.26028745,0.0,icsd-408032,"{57: 6, 14: 7, 35: 3}","[14, 35, 57]",147353576,La6Si7Br3
Si7Tc4,mp-1203760,1.0648,10.93376325,0.0,icsd-652382,"{14: 7, 43: 4}","[14, 43]",147434,Si7Tc4
U2Si7Ru12,mp-1208764,0.0,9.90698619,0.0,pf-16008,"{92: 2, 14: 7, 44: 12}","[14, 44, 92]",1474412922,U2Si7Ru12
Ce2Si7Rh15,mp-628614,0.0,8.2197624,0.0,icsd-280622,"{58: 2, 14: 7, 45: 15}","[14, 45, 58]",1474515582,Ce2Si7Rh15
Ba2Eu3Si7,mp-1102914,0.0,4.42619191,0.0,icsd-83676,"{56: 2, 63: 3, 14: 7}","[14, 56, 63]",147562633,Ba2Eu3Si7
Re4Si7,mp-1190581,0.05030000000000001,9.75421994,0.0,icsd-420071,"{75: 4, 14: 7}","[14, 75]",147754,Re4Si7
KNaZrSi3H4O11,mp-773906,4.920400000000001,0.01197899,0.0,icsd-201843,"{19: 1, 11: 1, 40: 1, 14: 3, 1: 4, 8: 11}","[1, 8, 11, 14, 19, 40]",14811111143191401,K1Na1Zr1Si3H4O11
Ca3(Si4P7)2,mp-1195188,1.2361000000000004,6.39838617,0.0,icsd-428982,"{20: 3, 14: 8, 15: 14}","[14, 15, 20]",1481514203,Ca3Si8P14
Mn6Si8Mo5,mp-1211554,0.0,9.34186954,0.0,pf-22331,"{25: 6, 14: 8, 42: 5}","[14, 25, 42]",148256425,Mn6Si8Mo5
CaSiH4(OF3)2,mp-1198120,6.5428999999999995,-1.47389646,0.0,icsd-183913,"{20: 1, 14: 1, 1: 4, 8: 2, 9: 6}","[1, 8, 9, 14, 20]",148296141201,Ca1Si1H4O2F6
BaSi9Rh2,mp-1190822,0.17930000000000046,7.15363407,0.0,icsd-247984,"{56: 1, 14: 9, 45: 2}","[14, 45, 56]",149452561,Ba1Si9Rh2
Er4Si9Ir13,mp-510706,0.0,8.3533755,0.0,icsd-79220,"{68: 4, 14: 9, 77: 13}","[14, 68, 77]",1496847713,Er4Si9Ir13
Si2H6S,mp-29309,4.4871,-1.68848331,0.0,icsd-201490,"{14: 2, 1: 6, 16: 1}","[1, 14, 16]",16142161,Si2H6S1
Si2H6Se,mp-29310,3.7464000000000004,-1.4496604,0.0,icsd-201491,"{14: 2, 1: 6, 34: 1}","[1, 14, 34]",16142341,Si2H6Se1
K3Si6H6N11,mp-1212001,3.1132999999999997,2.58837047,0.0,pf-26851,"{19: 3, 14: 6, 1: 6, 7: 11}","[1, 7, 14, 19]",16711146193,K3Si6H6N11
SiH6(NF2)2,mp-643277,6.4284,-2.81882257,0.0,icsd-78902,"{14: 1, 1: 6, 7: 2, 9: 4}","[1, 7, 9, 14]",167294141,Si1H6N2F4
Na3YSi3(HO2)6,mp-1210458,4.9797,5.30372373,0.0,pf-10731,"{11: 3, 39: 1, 14: 3, 1: 6, 8: 12}","[1, 8, 11, 14, 39]",16812113143391,Na3Y1Si3H6O12
Si(PH2)4,mp-29549,3.9290000000000003,-1.23856582,0.0,icsd-408432,"{14: 1, 15: 4, 1: 8}","[1, 14, 15]",18141154,Si1P4H8
SiH8(NF3)2,mp-759722,6.4741,-2.12874337,0.0,icsd-280755,"{14: 1, 1: 8, 7: 2, 9: 6}","[1, 7, 9, 14]",187296141,Si1H8N2F6
CrSiH8(O2F3)2,mp-1196749,0.03200000000000003,2.19161407,0.0,icsd-165384,"{24: 1, 14: 1, 1: 8, 8: 4, 9: 6}","[1, 8, 9, 14, 24]",188496141241,Cr1Si1H8O4F6
BeSiP2,mp-1009085,0.8007,5.27498942,0.0,icsd-237066,"{4: 1, 14: 1, 15: 2}","[4, 14, 15]",41141152,Be1Si1P2
BeSiAs2,mp-1009087,1.0226000000000006,4.40342348,0.0,icsd-237067,"{4: 1, 14: 1, 33: 2}","[4, 14, 33]",41141332,Be1Si1As2
ZrBeSi,mp-10200,0.0,6.36478443,0.0,icsd-76123,"{40: 1, 4: 1, 14: 1}","[4, 14, 40]",41141401,Zr1Be1Si1
HfBeSi,mp-12571,0.0,6.91301545,0.0,icsd-108103,"{72: 1, 4: 1, 14: 1}","[4, 14, 72]",41141721,Hf1Be1Si1
BeSiN2,mp-7913,5.1459,5.98584974,0.0,icsd-25704,"{4: 1, 14: 1, 7: 2}","[4, 7, 14]",4172141,Be1Si1N2
K2Be(Si2O5)2,mp-557802,4.401999999999999,0.76281438,0.0,icsd-20797,"{19: 2, 4: 1, 14: 4, 8: 10}","[4, 8, 14, 19]",41810144192,K2Be1Si4O10
Na2BeSiO4,mp-17183,4.6341,2.05057822,0.0,icsd-34564,"{11: 2, 4: 1, 14: 1, 8: 4}","[4, 8, 11, 14]",4184112141,Na2Be1Si1O4
BaBeSiO4,mp-550751,4.4231,1.40988319,0.0,icsd-86792,"{56: 1, 4: 1, 14: 1, 8: 4}","[4, 8, 14, 56]",4184141561,Ba1Be1Si1O4
Na2Be(SiO3)2,mp-556013,4.7889,1.15594371,0.0,icsd-34075,"{11: 2, 4: 1, 14: 2, 8: 6}","[4, 8, 11, 14]",4186112142,Na2Be1Si2O6
NaCaBeSi2O6F,mp-560721,5.510999999999999,1.54882908,0.0,icsd-15314,"{11: 1, 20: 1, 4: 1, 14: 2, 8: 6, 9: 1}","[4, 8, 9, 11, 14, 20]",418691111142201,Na1Ca1Be1Si2O6F1
Y2Be2Fe(SiO5)2,mp-18959,3.9209,3.81607711,0.0,icsd-109343,"{39: 2, 4: 2, 26: 1, 14: 2, 8: 10}","[4, 8, 14, 26, 39]",42810142261392,Y2Be2Fe1Si2O10
K2Be2(Si2O5)3,mp-561549,4.83,0.78707454,0.0,icsd-60284,"{19: 2, 4: 2, 14: 6, 8: 15}","[4, 8, 14, 19]",42815146192,K2Be2Si6O15
Ca3TiBe2Si2(As3O10)2,mp-558370,2.6361999999999997,2.20083463,0.0,icsd-74290,"{20: 3, 22: 1, 4: 2, 14: 2, 33: 6, 8: 20}","[4, 8, 14, 20, 22, 33]",42820142203221336,Ca3Ti1Be2Si2As6O20
Be2SiO4,mp-3347,6.042000000000001,2.5660705,0.0,icsd-64944,"{4: 2, 14: 1, 8: 4}","[4, 8, 14]",4284141,Be2Si1O4
Y2Be2SiO7,mp-6655,4.9016,2.48423269,0.0,icsd-95553,"{39: 2, 4: 2, 14: 1, 8: 7}","[4, 8, 14, 39]",4287141392,Y2Be2Si1O7
Nd2Be2SiO7,mp-9077,5.0227,2.6598016,0.0,icsd-73520,"{60: 2, 4: 2, 14: 1, 8: 7}","[4, 8, 14, 60]",4287141602,Nd2Be2Si1O7
Sm2Be2SiO7,mp-1208884,5.1019,2.47991032,0.0,pf-15333,"{62: 2, 4: 2, 14: 1, 8: 7}","[4, 8, 14, 62]",4287141622,Sm2Be2Si1O7
Gd2Be2SiO7,mp-1212449,3.3147999999999995,2.65084795,0.0,pf-3040,"{64: 2, 4: 2, 14: 1, 8: 7}","[4, 8, 14, 64]",4287141642,Gd2Be2Si1O7
Tb2Be2SiO7,mp-1208515,5.1182,7.57944592,0.0,pf-34514,"{65: 2, 4: 2, 14: 1, 8: 7}","[4, 8, 14, 65]",4287141652,Tb2Be2Si1O7
Dy2Be2SiO7,mp-1213057,5.089600000000001,7.49708509,0.0,pf-24001,"{66: 2, 4: 2, 14: 1, 8: 7}","[4, 8, 14, 66]",4287141662,Dy2Be2Si1O7
Ho2Be2SiO7,mp-7013,5.0859000000000005,2.43544462,0.0,icsd-73521,"{67: 2, 4: 2, 14: 1, 8: 7}","[4, 8, 14, 67]",4287141672,Ho2Be2Si1O7
Tm2Be2SiO7,mp-1207992,5.3393,7.70232945,0.0,pf-34428,"{69: 2, 4: 2, 14: 1, 8: 7}","[4, 8, 14, 69]",4287141692,Tm2Be2Si1O7
Rb2Be2Si2O7,mp-557027,4.3938,0.22475146,0.0,icsd-828,"{37: 2, 4: 2, 14: 2, 8: 7}","[4, 8, 14, 37]",4287142372,Rb2Be2Si2O7
BaBe2Si2O7,mp-12797,5.2992,2.13515464,0.0,icsd-151563,"{56: 1, 4: 2, 14: 2, 8: 7}","[4, 8, 14, 56]",4287142561,Ba1Be2Si2O7
Na2Be2(SiO3)3,mp-555182,4.8522,2.29164178,0.0,icsd-32523,"{11: 2, 4: 2, 14: 3, 8: 9}","[4, 8, 11, 14]",4289112143,Na2Be2Si3O9
K2Be2(SiO3)3,mp-557472,5.035,1.73835906,0.0,icsd-82398,"{19: 2, 4: 2, 14: 3, 8: 9}","[4, 8, 14, 19]",4289143192,K2Be2Si3O9
Mn4Be3Si3SO12,mp-19314,3.3366,1.94723621,0.0,icsd-29541,"{25: 4, 4: 3, 14: 3, 16: 1, 8: 12}","[4, 8, 14, 16, 25]",43812143161254,Mn4Be3Si3S1O12
Be3Zn4Si3SO12,mp-6856,4.2033,1.42853183,0.0,icsd-201642,"{4: 3, 30: 4, 14: 3, 16: 1, 8: 12}","[4, 8, 14, 16, 30]",43812143161304,Be3Zn4Si3S1O12
Be3Cd4Si3SO12,mp-17493,0.9984000000000002,3.19589067,0.0,icsd-81485,"{4: 3, 48: 4, 14: 3, 16: 1, 8: 12}","[4, 8, 14, 16, 48]",43812143161484,Be3Cd4Si3S1O12
CaMn2Be3(SiO4)3,mp-15539,4.1417,3.24528225,0.0,icsd-100082,"{20: 1, 25: 2, 4: 3, 14: 3, 8: 12}","[4, 8, 14, 20, 25]",43812143201252,Ca1Mn2Be3Si3O12
Mn4Be3Si3SeO12,mp-18554,3.1871,2.13013288,0.0,icsd-83839,"{25: 4, 4: 3, 14: 3, 34: 1, 8: 12}","[4, 8, 14, 25, 34]",43812143254341,Mn4Be3Si3Se1O12
Mn4Be3Si3TeO12,mp-18320,3.1768000000000005,2.47188838,0.0,icsd-83840,"{25: 4, 4: 3, 14: 3, 52: 1, 8: 12}","[4, 8, 14, 25, 52]",43812143254521,Mn4Be3Si3Te1O12
Be3Cd4Si3SeO12,mp-16793,3.0777,0.95251418,0.0,icsd-81486,"{4: 3, 48: 4, 14: 3, 34: 1, 8: 12}","[4, 8, 14, 34, 48]",43812143341484,Be3Cd4Si3Se1O12
Be3Cd4Si3TeO12,mp-17167,3.125,1.14641514,0.0,icsd-81487,"{4: 3, 48: 4, 14: 3, 52: 1, 8: 12}","[4, 8, 14, 48, 52]",43812143484521,Be3Cd4Si3Te1O12
La3Co29(Si2B5)2,mp-6084,0.0,7.33257936,0.0,icsd-90582,"{57: 3, 27: 29, 14: 4, 5: 10}","[5, 14, 27, 57]",5101442729573,La3Co29Si4B10
Ce3Co29(Si2B5)2,mp-16083,0.0,7.22589716,0.0,icsd-90583,"{58: 3, 27: 29, 14: 4, 5: 10}","[5, 14, 27, 58]",5101442729583,Ce3Co29Si4B10
Pr3Co29(Si2B5)2,mp-16084,0.0037000000000002586,,0.0,icsd-90584,"{59: 3, 27: 29, 14: 4, 5: 10}","[5, 14, 27, 59]",5101442729593,Pr3Co29Si4B10
Nd3Co29(Si2B5)2,mp-16085,0.0,6.37710155,0.0,icsd-90585,"{60: 3, 27: 29, 14: 4, 5: 10}","[5, 14, 27, 60]",5101442729603,Nd3Co29Si4B10
Sm3Co29(Si2B5)2,mp-16086,0.011100000000000776,,0.0,icsd-90586,"{62: 3, 27: 29, 14: 4, 5: 10}","[5, 14, 27, 62]",5101442729623,Sm3Co29Si4B10
Gd3Co29(Si2B5)2,mp-680293,0.0,6.29867489,0.0,icsd-90587,"{64: 3, 27: 29, 14: 4, 5: 10}","[5, 14, 27, 64]",5101442729643,Gd3Co29Si4B10