formula,material_id,band_gap,efermi,energy_above_hull,database_IDs,comp_atoms,sorted_keys_comp_atoms,comp_number,new_formula
Tb3Co29(Si2B5)2,mp-16088,0.010299999999999976,,0.0,icsd-90588,"{65: 3, 27: 29, 14: 4, 5: 10}","[5, 14, 27, 65]",5101442729653,Tb3Co29Si4B10
Er3Co29(Si2B5)2,mp-21951,0.0,6.33665119,0.0,icsd-90591,"{68: 3, 27: 29, 14: 4, 5: 10}","[5, 14, 27, 68]",5101442729683,Er3Co29Si4B10
Tm3Co29(Si2B5)2,mp-16092,0.012199999999999989,,0.0,icsd-90592,"{69: 3, 27: 29, 14: 4, 5: 10}","[5, 14, 27, 69]",5101442729693,Tm3Co29Si4B10
Lu3Co29(Si2B5)2,mp-16093,0.012199999999999989,,0.0,icsd-90593,"{71: 3, 27: 29, 14: 4, 5: 10}","[5, 14, 27, 71]",5101442729713,Lu3Co29Si4B10
Ti6Si2B,mp-11750,0.0,6.77790476,0.0,icsd-181164,"{22: 6, 14: 2, 5: 1}","[5, 14, 22]",51142226,Ti6Si2B1
Nb5Si3B,mp-1106165,0.0,7.28461036,0.0,icsd-614916,"{41: 5, 14: 3, 5: 1}","[5, 14, 41]",51143415,Nb5Si3B1
Pr3Si2BO10,mp-1196034,4.7116,2.48937794,0.0,icsd-239234,"{59: 3, 14: 2, 5: 1, 8: 10}","[5, 8, 14, 59]",51810142593,Pr3Si2B1O10
Sm3Si2BO10,mp-13500,4.8153,2.39009307,0.0,icsd-55565,"{62: 3, 14: 2, 5: 1, 8: 10}","[5, 8, 14, 62]",51810142623,Sm3Si2B1O10
NaSiBO4,mp-558181,5.448600000000001,1.90512463,0.0,icsd-171041,"{11: 1, 14: 1, 5: 1, 8: 4}","[5, 8, 11, 14]",5184111141,Na1Si1B1O4
CeSiBO5,mp-22225,0.15749999999999975,7.34877735,0.0,icsd-28026,"{58: 1, 14: 1, 5: 1, 8: 5}","[5, 8, 14, 58]",5185141581,Ce1Si1B1O5
KSi2BO6,mp-1019889,5.3233999999999995,1.02374328,0.0,icsd-380488,"{19: 1, 14: 2, 5: 1, 8: 6}","[5, 8, 14, 19]",5186142191,K1Si2B1O6
CsSi2BO6,mp-1019719,5.258900000000001,1.34880935,0.0,icsd-185810,"{55: 1, 14: 2, 5: 1, 8: 6}","[5, 8, 14, 55]",5186142551,Cs1Si2B1O6
Sc2SiB2Ir5,mp-22014,0.0,8.77934457,0.0,icsd-85629,"{21: 2, 14: 1, 5: 2, 77: 5}","[5, 14, 21, 77]",52141212775,Sc2Si1B2Ir5
V5SiB2,mp-10126,0.0,6.99620655,0.0,icsd-44490,"{23: 5, 14: 1, 5: 2}","[5, 14, 23]",52141235,V5Si1B2
Mn5SiB2,mp-1189157,0.0,7.61622677,0.0,icsd-614772,"{25: 5, 14: 1, 5: 2}","[5, 14, 25]",52141255,Mn5Si1B2
Nb5SiB2,mp-1209930,0.0,5.92614325,0.0,pf-1198,"{41: 5, 14: 1, 5: 2}","[5, 14, 41]",52141415,Nb5Si1B2
Ba2CaSi4(BO7)2,mp-1019518,4.8764,1.4929108,0.0,icsd-193536,"{56: 2, 20: 1, 14: 4, 5: 2, 8: 14}","[5, 8, 14, 20, 56]",52814144201562,Ba2Ca1Si4B2O14
SrSi2(BO4)2,mp-6032,5.4873,1.9663824,0.0,icsd-83368,"{38: 1, 14: 2, 5: 2, 8: 8}","[5, 8, 14, 38]",5288142381,Sr1Si2B2O8
BaSi2(BO4)2,mp-555387,5.5233,1.72666201,0.0,icsd-247554,"{56: 1, 14: 2, 5: 2, 8: 8}","[5, 8, 14, 56]",5288142561,Ba1Si2B2O8
SiB3,mp-569128,1.4080000000000004,5.28319771,0.0,icsd-412621,"{14: 1, 5: 3}","[5, 14]",53141,Si1B3
Ba3Si2(B3O8)2,mp-1019526,5.4031,1.96475868,0.0,icsd-252579,"{56: 3, 14: 2, 5: 6, 8: 16}","[5, 8, 14, 56]",56816142563,Ba3Si2B6O16
Y5(SiB4)2,mp-1207750,0.0,5.5172863,0.0,pf-9353,"{39: 5, 14: 2, 5: 8}","[5, 14, 39]",58142395,Y5Si2B8
Tb5(SiB4)2,mp-1208405,0.0,5.41067905,0.0,pf-41228,"{65: 5, 14: 2, 5: 8}","[5, 14, 65]",58142655,Tb5Si2B8
Dy5(SiB4)2,mp-1212823,0.0,5.40296458,0.0,pf-30288,"{66: 5, 14: 2, 5: 8}","[5, 14, 66]",58142665,Dy5Si2B8
Ho5(SiB4)2,mp-1212227,0.0,5.35319377,0.0,pf-40713,"{67: 5, 14: 2, 5: 8}","[5, 14, 67]",58142675,Ho5Si2B8
SiC,mp-1204356,1.8389000000000006,9.86867141,0.0,icsd-23887,"{14: 1, 6: 1}","[6, 14]",61141,Si1C1
YMn2SiC,mp-1206001,0.0,5.93426686,0.0,pf-40804,"{39: 1, 25: 2, 14: 1, 6: 1}","[6, 14, 25, 39]",61141252391,Y1Mn2Si1C1
SmMn2SiC,mp-1205608,0.0,5.57795478,0.0,pf-18532,"{62: 1, 25: 2, 14: 1, 6: 1}","[6, 14, 25, 62]",61141252621,Sm1Mn2Si1C1
TbMn2SiC,mp-1205526,0.0,5.84166918,0.0,pf-39510,"{65: 1, 25: 2, 14: 1, 6: 1}","[6, 14, 25, 65]",61141252651,Tb1Mn2Si1C1
DyMn2SiC,mp-1205851,0.0,5.84878052,0.0,pf-8097,"{66: 1, 25: 2, 14: 1, 6: 1}","[6, 14, 25, 66]",61141252661,Dy1Mn2Si1C1
HoMn2SiC,mp-1205720,0.0,5.77888673,0.0,pf-18611,"{67: 1, 25: 2, 14: 1, 6: 1}","[6, 14, 25, 67]",61141252671,Ho1Mn2Si1C1
ErMn2SiC,mp-1206340,0.0,5.85804905,0.0,pf-29137,"{68: 1, 25: 2, 14: 1, 6: 1}","[6, 14, 25, 68]",61141252681,Er1Mn2Si1C1
TmMn2SiC,mp-1207684,0.0,5.85009626,0.0,pf-39583,"{69: 1, 25: 2, 14: 1, 6: 1}","[6, 14, 25, 69]",61141252691,Tm1Mn2Si1C1
ThMn2SiC,mp-1205614,0.0,7.57291396,0.0,pf-18698,"{90: 1, 25: 2, 14: 1, 6: 1}","[6, 14, 25, 90]",61141252901,Th1Mn2Si1C1
UMn2SiC,mp-1205583,0.0,9.37301762,0.0,pf-29227,"{92: 1, 25: 2, 14: 1, 6: 1}","[6, 14, 25, 92]",61141252921,U1Mn2Si1C1
YFe2SiC,mp-1206116,0.0,6.08675835,0.0,pf-33634,"{39: 1, 26: 2, 14: 1, 6: 1}","[6, 14, 26, 39]",61141262391,Y1Fe2Si1C1
SmFe2SiC,mp-1206795,0.0,5.74110166,0.0,pf-2221,"{62: 1, 26: 2, 14: 1, 6: 1}","[6, 14, 26, 62]",61141262621,Sm1Fe2Si1C1
GdFe2SiC,mp-1205624,0.0,5.99269792,0.0,pf-21860,"{64: 1, 26: 2, 14: 1, 6: 1}","[6, 14, 26, 64]",61141262641,Gd1Fe2Si1C1
TbFe2SiC,mp-1205543,0.0,5.98288225,0.0,pf-32304,"{65: 1, 26: 2, 14: 1, 6: 1}","[6, 14, 26, 65]",61141262651,Tb1Fe2Si1C1
DyFe2SiC,mp-568668,0.0,6.01087679,0.0,icsd-40773,"{66: 1, 26: 2, 14: 1, 6: 1}","[6, 14, 26, 66]",61141262661,Dy1Fe2Si1C1
HoFe2SiC,mp-1207148,0.0,5.93429434,0.0,pf-11355,"{67: 1, 26: 2, 14: 1, 6: 1}","[6, 14, 26, 67]",61141262671,Ho1Fe2Si1C1
ErFe2SiC,mp-1206739,0.0,5.96506124,0.0,pf-21940,"{68: 1, 26: 2, 14: 1, 6: 1}","[6, 14, 26, 68]",61141262681,Er1Fe2Si1C1
TmFe2SiC,mp-1205538,0.0,5.94235695,0.0,pf-32385,"{69: 1, 26: 2, 14: 1, 6: 1}","[6, 14, 26, 69]",61141262691,Tm1Fe2Si1C1
ThFe2SiC,mp-569748,0.0,7.73003583,0.0,icsd-75133,"{90: 1, 26: 2, 14: 1, 6: 1}","[6, 14, 26, 90]",61141262901,Th1Fe2Si1C1
UFe2SiC,mp-1205771,0.0,9.37135738,0.0,pf-11436,"{92: 1, 26: 2, 14: 1, 6: 1}","[6, 14, 26, 92]",61141262921,U1Fe2Si1C1
Pr2Co2SiC,mp-1071216,0.0,5.25495215,0.0,icsd-238028,"{59: 2, 27: 2, 14: 1, 6: 1}","[6, 14, 27, 59]",61141272592,Pr2Co2Si1C1
Nd2Co2SiC,mp-1070917,0.0,5.23432061,0.0,icsd-238027,"{60: 2, 27: 2, 14: 1, 6: 1}","[6, 14, 27, 60]",61141272602,Nd2Co2Si1C1
YSiRu2C,mp-1205712,0.0,6.70410955,0.0,pf-5624,"{39: 1, 14: 1, 44: 2, 6: 1}","[6, 14, 39, 44]",61141391442,Y1Si1Ru2C1
YRe2SiC,mp-1205734,0.0,6.43464428,0.0,pf-6827,"{39: 1, 75: 2, 14: 1, 6: 1}","[6, 14, 39, 75]",61141391752,Y1Re2Si1C1
YSiOs2C,mp-1205527,0.0,6.88270493,0.0,pf-35837,"{39: 1, 14: 1, 76: 2, 6: 1}","[6, 14, 39, 76]",61141391762,Y1Si1Os2C1
CeSiRu2C,mp-1205654,0.0,8.2486347,0.0,pf-16076,"{58: 1, 14: 1, 44: 2, 6: 1}","[6, 14, 44, 58]",61141442581,Ce1Si1Ru2C1
PrSiRu2C,mp-1205551,0.0,6.53323031,0.0,pf-26639,"{59: 1, 14: 1, 44: 2, 6: 1}","[6, 14, 44, 59]",61141442591,Pr1Si1Ru2C1
NdSiRu2C,mp-1205506,0.0,6.52015502,0.0,pf-37133,"{60: 1, 14: 1, 44: 2, 6: 1}","[6, 14, 44, 60]",61141442601,Nd1Si1Ru2C1
SmSiRu2C,mp-1205773,0.0,6.39673753,0.0,pf-5699,"{62: 1, 14: 1, 44: 2, 6: 1}","[6, 14, 44, 62]",61141442621,Sm1Si1Ru2C1
TbSiRu2C,mp-1205603,0.0,6.64039297,0.0,pf-26711,"{65: 1, 14: 1, 44: 2, 6: 1}","[6, 14, 44, 65]",61141442651,Tb1Si1Ru2C1
DySiRu2C,mp-570595,0.0,6.62464863,0.0,icsd-50633,"{66: 1, 14: 1, 44: 2, 6: 1}","[6, 14, 44, 66]",61141442661,Dy1Si1Ru2C1
HoSiRu2C,mp-570102,0.0,6.6009464,0.0,icsd-50634,"{67: 1, 14: 1, 44: 2, 6: 1}","[6, 14, 44, 67]",61141442671,Ho1Si1Ru2C1
ErSiRu2C,mp-1205505,0.0,6.61706044,0.0,pf-37214,"{68: 1, 14: 1, 44: 2, 6: 1}","[6, 14, 44, 68]",61141442681,Er1Si1Ru2C1
TmSiRu2C,mp-1205703,0.0,6.60410329,0.0,pf-5785,"{69: 1, 14: 1, 44: 2, 6: 1}","[6, 14, 44, 69]",61141442691,Tm1Si1Ru2C1
ThSiRu2C,mp-1205580,0.0,8.24553181,0.0,pf-25341,"{90: 1, 14: 1, 44: 2, 6: 1}","[6, 14, 44, 90]",61141442901,Th1Si1Ru2C1
LaSiOs2C,mp-1205718,0.0,8.6031244,0.0,pf-4375,"{57: 1, 14: 1, 76: 2, 6: 1}","[6, 14, 57, 76]",61141571762,La1Si1Os2C1
CeRe2SiC,mp-1206583,0.0,8.05724579,0.0,pf-17290,"{58: 1, 75: 2, 14: 1, 6: 1}","[6, 14, 58, 75]",61141581752,Ce1Re2Si1C1
CeSiOs2C,mp-1205921,0.0,8.5044085,0.0,pf-14860,"{58: 1, 14: 1, 76: 2, 6: 1}","[6, 14, 58, 76]",61141581762,Ce1Si1Os2C1
PrRe2SiC,mp-1206956,0.0,6.47209315,0.0,pf-27853,"{59: 1, 75: 2, 14: 1, 6: 1}","[6, 14, 59, 75]",61141591752,Pr1Re2Si1C1
PrSiOs2C,mp-1209299,0.0,6.83837119,0.0,pf-19817,"{59: 1, 14: 1, 76: 2, 6: 1}","[6, 14, 59, 76]",61141591762,Pr1Si1Os2C1
NdRe2SiC,mp-1205793,0.0,6.40692803,0.0,pf-38304,"{60: 1, 75: 2, 14: 1, 6: 1}","[6, 14, 60, 75]",61141601752,Nd1Re2Si1C1
NdSiOs2C,mp-1205578,0.0,6.75368277,0.0,pf-25420,"{60: 1, 14: 1, 76: 2, 6: 1}","[6, 14, 60, 76]",61141601762,Nd1Si1Os2C1
SmRe2SiC,mp-1206564,0.0,6.28393934,0.0,pf-6912,"{62: 1, 75: 2, 14: 1, 6: 1}","[6, 14, 62, 75]",61141621752,Sm1Re2Si1C1
SmSiOs2C,mp-1205528,0.0,6.66796534,0.0,pf-35918,"{62: 1, 14: 1, 76: 2, 6: 1}","[6, 14, 62, 76]",61141621762,Sm1Si1Os2C1
TbRe2SiC,mp-569505,0.0,6.46248933,0.0,icsd-50632,"{65: 1, 75: 2, 14: 1, 6: 1}","[6, 14, 65, 75]",61141651752,Tb1Re2Si1C1
TbSiOs2C,mp-1206183,0.0,6.86816439,0.0,pf-14944,"{65: 1, 14: 1, 76: 2, 6: 1}","[6, 14, 65, 76]",61141651762,Tb1Si1Os2C1
DyRe2SiC,mp-1206141,0.0,6.41340223,0.0,pf-27936,"{66: 1, 75: 2, 14: 1, 6: 1}","[6, 14, 66, 75]",61141661752,Dy1Re2Si1C1
DySiOs2C,mp-1205579,0.0,6.84976091,0.0,pf-25498,"{66: 1, 14: 1, 76: 2, 6: 1}","[6, 14, 66, 76]",61141661762,Dy1Si1Os2C1
HoRe2SiC,mp-1205545,0.0,6.35001256,0.0,pf-38397,"{67: 1, 75: 2, 14: 1, 6: 1}","[6, 14, 67, 75]",61141671752,Ho1Re2Si1C1
HoSiOs2C,mp-1205519,0.0,6.82343291,0.0,pf-35986,"{67: 1, 14: 1, 76: 2, 6: 1}","[6, 14, 67, 76]",61141671762,Ho1Si1Os2C1
ErRe2SiC,mp-1205882,0.0,6.34896206,0.0,pf-6986,"{68: 1, 75: 2, 14: 1, 6: 1}","[6, 14, 68, 75]",61141681752,Er1Re2Si1C1
ErSiOs2C,mp-1206269,0.0,6.83786026,0.0,pf-13608,"{68: 1, 14: 1, 76: 2, 6: 1}","[6, 14, 68, 76]",61141681762,Er1Si1Os2C1
TmRe2SiC,mp-1205618,0.0,6.35217119,0.0,pf-17452,"{69: 1, 75: 2, 14: 1, 6: 1}","[6, 14, 69, 75]",61141691752,Tm1Re2Si1C1
TmSiOs2C,mp-1205607,0.0,6.83059626,0.0,pf-24147,"{69: 1, 14: 1, 76: 2, 6: 1}","[6, 14, 69, 76]",61141691762,Tm1Si1Os2C1
ThRe2SiC,mp-1206114,0.0,8.1174599,0.0,pf-37067,"{90: 1, 75: 2, 14: 1, 6: 1}","[6, 14, 75, 90]",61141752901,Th1Re2Si1C1
ThSiOs2C,mp-1208232,0.0,8.53887956,0.0,pf-40734,"{90: 1, 14: 1, 76: 2, 6: 1}","[6, 14, 76, 90]",61141762901,Th1Si1Os2C1
LaCr2Si2C,mp-604153,0.0,8.98178522,0.0,icsd-160691,"{57: 1, 24: 2, 14: 2, 6: 1}","[6, 14, 24, 57]",61142242571,La1Cr2Si2C1
CeCr2Si2C,mp-6258,0.0,8.87962084,0.0,icsd-90281,"{58: 1, 24: 2, 14: 2, 6: 1}","[6, 14, 24, 58]",61142242581,Ce1Cr2Si2C1
SmCr2Si2C,mp-1206312,0.0,7.20142365,0.0,pf-21430,"{62: 1, 24: 2, 14: 2, 6: 1}","[6, 14, 24, 62]",61142242621,Sm1Cr2Si2C1
TbCr2Si2C,mp-1206333,0.0,7.40381278,0.0,pf-456,"{65: 1, 24: 2, 14: 2, 6: 1}","[6, 14, 24, 65]",61142242651,Tb1Cr2Si2C1
DyCr2Si2C,mp-1206533,0.0,7.33560473,0.0,pf-10952,"{66: 1, 24: 2, 14: 2, 6: 1}","[6, 14, 24, 66]",61142242661,Dy1Cr2Si2C1
HoCr2Si2C,mp-1024999,0.0,7.38806583,0.0,pf-30563,"{67: 1, 24: 2, 14: 2, 6: 1}","[6, 14, 24, 67]",61142242671,Ho1Cr2Si2C1
ErCr2Si2C,mp-1206309,0.0,7.39806846,0.0,pf-6290,"{68: 1, 24: 2, 14: 2, 6: 1}","[6, 14, 24, 68]",61142242681,Er1Cr2Si2C1
Y2Fe2Si2C,mp-1025339,0.0,6.11264961,0.0,icsd-617825,"{39: 2, 26: 2, 14: 2, 6: 1}","[6, 14, 26, 39]",61142262392,Y2Fe2Si2C1
La2Fe2Si2C,mp-1025290,0.0,8.12393998,0.0,pf-17382,"{57: 2, 26: 2, 14: 2, 6: 1}","[6, 14, 26, 57]",61142262572,La2Fe2Si2C1
Ce2Fe2Si2C,mp-1025289,0.0,8.08972664,0.0,pf-27952,"{58: 2, 26: 2, 14: 2, 6: 1}","[6, 14, 26, 58]",61142262582,Ce2Fe2Si2C1
Pr2Fe2Si2C,mp-1025194,0.0,5.80170646,0.0,icsd-617814,"{59: 2, 26: 2, 14: 2, 6: 1}","[6, 14, 26, 59]",61142262592,Pr2Fe2Si2C1
Nd2Fe2Si2C,mp-6638,0.0,5.77290737,0.0,icsd-57048,"{60: 2, 26: 2, 14: 2, 6: 1}","[6, 14, 26, 60]",61142262602,Nd2Fe2Si2C1
Sm2Fe2Si2C,mp-1025262,0.0,5.6625353,0.0,pf-26585,"{62: 2, 26: 2, 14: 2, 6: 1}","[6, 14, 26, 62]",61142262622,Sm2Fe2Si2C1
Tb2Fe2Si2C,mp-6624,0.0,5.98874437,0.0,icsd-603156,"{65: 2, 26: 2, 14: 2, 6: 1}","[6, 14, 26, 65]",61142262652,Tb2Fe2Si2C1
Dy2Fe2Si2C,mp-11705,0.0,6.01498839,0.0,icsd-67467,"{66: 2, 26: 2, 14: 2, 6: 1}","[6, 14, 26, 66]",61142262662,Dy2Fe2Si2C1
Ho2Fe2Si2C,mp-1025316,0.0,5.94699574,0.0,icsd-617751,"{67: 2, 26: 2, 14: 2, 6: 1}","[6, 14, 26, 67]",61142262672,Ho2Fe2Si2C1
Er2Fe2Si2C,mp-1025354,0.0,5.97296734,0.0,icsd-617663,"{68: 2, 26: 2, 14: 2, 6: 1}","[6, 14, 26, 68]",61142262682,Er2Fe2Si2C1
Tm2Fe2Si2C,mp-9211,0.0,5.97289795,0.0,icsd-79394,"{69: 2, 26: 2, 14: 2, 6: 1}","[6, 14, 26, 69]",61142262692,Tm2Fe2Si2C1
Lu2Fe2Si2C,mp-1025357,0.0,5.97139672,0.0,pf-39377,"{71: 2, 26: 2, 14: 2, 6: 1}","[6, 14, 26, 71]",61142262712,Lu2Fe2Si2C1
Th2Fe2Si2C,mp-1025382,0.0,7.90314124,0.0,pf-37078,"{90: 2, 26: 2, 14: 2, 6: 1}","[6, 14, 26, 90]",61142262902,Th2Fe2Si2C1
Y2Re2Si2C,mp-1025205,0.0,6.29947186,0.0,pf-5638,"{39: 2, 75: 2, 14: 2, 6: 1}","[6, 14, 39, 75]",61142392752,Y2Re2Si2C1
CeSi2Mo2C,mp-1018666,0.0,8.86408441,0.0,icsd-189334,"{58: 1, 14: 2, 42: 2, 6: 1}","[6, 14, 42, 58]",61142422581,Ce1Si2Mo2C1
PrSi2Mo2C,mp-21891,0.0,7.49765598,0.0,icsd-409892,"{59: 1, 14: 2, 42: 2, 6: 1}","[6, 14, 42, 59]",61142422591,Pr1Si2Mo2C1
La2Re2Si2C,mp-1025245,0.0,8.12809163,0.0,pf-16094,"{57: 2, 75: 2, 14: 2, 6: 1}","[6, 14, 57, 75]",61142572752,La2Re2Si2C1
Ce2Re2Si2C,mp-1025285,0.0,8.07513189,0.0,pf-26658,"{58: 2, 75: 2, 14: 2, 6: 1}","[6, 14, 58, 75]",61142582752,Ce2Re2Si2C1
Pr2Re2Si2C,mp-1025384,0.0,6.0478521,0.0,pf-37157,"{59: 2, 75: 2, 14: 2, 6: 1}","[6, 14, 59, 75]",61142592752,Pr2Re2Si2C1
Nd2Re2Si2C,mp-1025210,0.0,6.02802872,0.0,pf-5726,"{60: 2, 75: 2, 14: 2, 6: 1}","[6, 14, 60, 75]",61142602752,Nd2Re2Si2C1
Sm2Re2Si2C,mp-1025249,0.0,5.96029293,0.0,pf-16178,"{62: 2, 75: 2, 14: 2, 6: 1}","[6, 14, 62, 75]",61142622752,Sm2Re2Si2C1
Gd2Re2Si2C,mp-1025361,0.0,5.97179286,0.0,pf-35775,"{64: 2, 75: 2, 14: 2, 6: 1}","[6, 14, 64, 75]",61142642752,Gd2Re2Si2C1
Tb2Re2Si2C,mp-1025189,0.0,6.24272025,0.0,pf-4318,"{65: 2, 75: 2, 14: 2, 6: 1}","[6, 14, 65, 75]",61142652752,Tb2Re2Si2C1
Dy2Re2Si2C,mp-1025240,0.0,6.24386876,0.0,pf-14810,"{66: 2, 75: 2, 14: 2, 6: 1}","[6, 14, 66, 75]",61142662752,Dy2Re2Si2C1
Ho2Re2Si2C,mp-1025320,0.0,6.2076574,0.0,pf-25354,"{67: 2, 75: 2, 14: 2, 6: 1}","[6, 14, 67, 75]",61142672752,Ho2Re2Si2C1
Er2Re2Si2C,mp-1025362,0.0,6.24002979,0.0,pf-35855,"{68: 2, 75: 2, 14: 2, 6: 1}","[6, 14, 68, 75]",61142682752,Er2Re2Si2C1
U6Fe16Si7C,mp-642273,0.0,10.10555509,0.0,icsd-160155,"{92: 6, 26: 16, 14: 7, 6: 1}","[6, 14, 26, 92]",611472616926,U6Fe16Si7C1
Er15Si9C,mp-1196963,0.0,4.44822257,0.0,icsd-185339,"{68: 15, 14: 9, 6: 1}","[6, 14, 68]",611496815,Er15Si9C1
La2SiC(NO2)2,mp-1204122,3.7006000000000006,5.09415711,0.0,icsd-420943,"{57: 2, 14: 1, 6: 1, 7: 2, 8: 4}","[6, 7, 8, 14, 57]",617284141572,La2Si1C1N2O4
Pr2SiC(NO2)2,mp-1186715,3.8967000000000005,3.00624692,0.0,icsd-420944,"{59: 2, 14: 1, 6: 1, 7: 2, 8: 4}","[6, 7, 8, 14, 59]",617284141592,Pr2Si1C1N2O4
Si2CN4,mp-30161,4.3744,2.15597846,0.0,icsd-93544,"{14: 2, 6: 1, 7: 4}","[6, 7, 14]",6174142,Si2C1N4
Y2Si4CN6,mp-6353,2.8384,5.64696803,0.0,icsd-162422,"{39: 2, 14: 4, 6: 1, 7: 6}","[6, 7, 14, 39]",6176144392,Y2Si4C1N6
La2Si4CN6,mp-866650,2.3360000000000003,7.70275778,0.0,icsd-152974,"{57: 2, 14: 4, 6: 1, 7: 6}","[6, 7, 14, 57]",6176144572,La2Si4C1N6
Gd2Si4CN6,mp-1205044,2.0209,5.45658004,0.0,icsd-182037,"{64: 2, 14: 4, 6: 1, 7: 6}","[6, 7, 14, 64]",6176144642,Gd2Si4C1N6
Tb2Si4CN6,mp-1208544,3.1495999999999995,5.57802036,0.0,pf-28611,"{65: 2, 14: 4, 6: 1, 7: 6}","[6, 7, 14, 65]",6176144652,Tb2Si4C1N6
Ho2Si4CN6,mp-6825,3.081200000000001,5.5674306,0.0,icsd-412000,"{67: 2, 14: 4, 6: 1, 7: 6}","[6, 7, 14, 67]",6176144672,Ho2Si4C1N6
Er2Si4CN6,mp-1212966,3.2788000000000004,5.47628433,0.0,pf-25059,"{68: 2, 14: 4, 6: 1, 7: 6}","[6, 7, 14, 68]",6176144682,Er2Si4C1N6
BaNa2Nd2Si4CO15,mp-559586,4.8248,1.69750114,0.0,icsd-20646,"{56: 1, 11: 2, 60: 2, 14: 4, 6: 1, 8: 15}","[6, 8, 11, 14, 56, 60]",61815112144561602,Ba1Na2Nd2Si4C1O15
Y2SiCO7,mp-556661,4.7935,2.6483016,0.0,icsd-88878,"{39: 2, 14: 1, 6: 1, 8: 7}","[6, 8, 14, 39]",6187141392,Y2Si1C1O7
Ti3SiC2,mp-5659,0.0,7.80301839,0.0,icsd-153264,"{22: 3, 14: 1, 6: 2}","[6, 14, 22]",62141223,Ti3Si1C2
U3(SiC)2,mp-28838,0.0,11.42062837,0.0,icsd-73605,"{92: 3, 14: 2, 6: 2}","[6, 14, 92]",62142923,U3Si2C2
KLaSi(CN2)4,mp-567129,3.6775999999999995,0.73072089,0.0,icsd-419336,"{19: 1, 57: 1, 14: 1, 6: 4, 7: 8}","[6, 7, 14, 19, 57]",6478141191571,K1La1Si1C4N8
RbLaSi(CN2)4,mp-568228,3.8555,0.78558808,0.0,icsd-419337,"{37: 1, 57: 1, 14: 1, 6: 4, 7: 8}","[6, 7, 14, 37, 57]",6478141371571,Rb1La1Si1C4N8
BaSi7N10,mp-29703,3.9124,5.41846885,0.0,icsd-405772,"{56: 1, 14: 7, 7: 10}","[7, 14, 56]",710147561,Ba1Si7N10
La3Si6N11,mp-1019893,2.9659000000000004,7.24663818,0.0,icsd-248709,"{57: 3, 14: 6, 7: 11}","[7, 14, 57]",711146573,La3Si6N11
Ce3Si6N11,mp-541712,0.0,8.87215629,0.0,icsd-237444,"{58: 3, 14: 6, 7: 11}","[7, 14, 58]",711146583,Ce3Si6N11
Pr3Si6N11,mp-16929,2.9903999999999993,5.5577673,0.0,icsd-402178,"{59: 3, 14: 6, 7: 11}","[7, 14, 59]",711146593,Pr3Si6N11
Nd3Si6N11,mp-1209932,3.0824,8.43037934,0.0,pf-4519,"{60: 3, 14: 6, 7: 11}","[7, 14, 60]",711146603,Nd3Si6N11
Sm3Si6N11,mp-16995,2.7625,5.36551266,0.0,icsd-80183,"{62: 3, 14: 6, 7: 11}","[7, 14, 62]",711146623,Sm3Si6N11
V5Si3N,mp-1207841,0.0,8.60666006,0.0,pf-41341,"{23: 5, 14: 3, 7: 1}","[7, 14, 23]",71143235,V5Si3N1
Zr5Si3N,mp-1207408,0.0,6.24271573,0.0,pf-30900,"{40: 5, 14: 3, 7: 1}","[7, 14, 40]",71143405,Zr5Si3N1
Hf5Si3N,mp-1212442,0.0,6.93333752,0.0,pf-20424,"{72: 5, 14: 3, 7: 1}","[7, 14, 72]",71143725,Hf5Si3N1
CaSiN2,mp-568965,3.4391,5.18745559,0.0,icsd-170267,"{20: 1, 14: 1, 7: 2}","[7, 14, 20]",72141201,Ca1Si1N2
ZnSiN2,mp-1020712,3.1944,4.86339722,0.0,icsd-656276,"{30: 1, 14: 1, 7: 2}","[7, 14, 30]",72141301,Zn1Si1N2
SrSiN2,mp-4549,2.9715000000000007,4.63609269,0.0,icsd-170266,"{38: 1, 14: 1, 7: 2}","[7, 14, 38]",72141381,Sr1Si1N2
BaSiN2,mp-3777,2.9202000000000004,4.54581667,0.0,icsd-170265,"{56: 1, 14: 1, 7: 2}","[7, 14, 56]",72141561,Ba1Si1N2
Si2N2O,mp-4497,4.924799999999999,3.86893619,0.0,icsd-200244,"{14: 2, 7: 2, 8: 1}","[7, 8, 14]",7281142,Si2N2O1
Ba3Si6(NO6)2,mp-985697,4.6093,2.39529945,0.0,icsd-421322,"{56: 3, 14: 6, 7: 2, 8: 12}","[7, 8, 14, 56]",72812146563,Ba3Si6N2O12
CaSi2(NO)2,mp-556884,4.3692,3.77451415,0.0,icsd-413882,"{20: 1, 14: 2, 7: 2, 8: 2}","[7, 8, 14, 20]",7282142201,Ca1Si2N2O2
BaSi2(NO)2,mp-6764,3.0102,3.77712942,0.0,icsd-419450,"{56: 1, 14: 2, 7: 2, 8: 2}","[7, 8, 14, 56]",7282142561,Ba1Si2N2O2
EuSi2(NO)2,mp-560341,0.2793000000000001,7.00179126,0.0,icsd-416046,"{63: 1, 14: 2, 7: 2, 8: 2}","[7, 8, 14, 63]",7282142631,Eu1Si2N2O2
NaSi2N3,mp-8973,4.1842999999999995,5.7120583,0.0,icsd-72466,"{11: 1, 14: 2, 7: 3}","[7, 11, 14]",73111142,Na1Si2N3
Pr3SiSe2N3,mp-568883,2.0836,3.16535568,0.0,icsd-414020,"{59: 3, 14: 1, 34: 2, 7: 3}","[7, 14, 34, 59]",73141342593,Pr3Si1Se2N3
Eu2SiN3,mp-1191010,0.0,4.59980814,0.0,icsd-420679,"{63: 2, 14: 1, 7: 3}","[7, 14, 63]",73141632,Eu2Si1N3
Ca4SiN4,mp-1019576,1.4498000000000002,3.76490169,0.0,icsd-250872,"{20: 4, 14: 1, 7: 4}","[7, 14, 20]",74141204,Ca4Si1N4
Si3N4,mp-988,4.2503,6.65520584,0.0,icsd-35567,"{14: 3, 7: 4}","[7, 14]",74143,Si3N4
Ba3Si6N4O9,mp-554885,4.372,2.86060963,0.0,icsd-415918,"{56: 3, 14: 6, 7: 4, 8: 9}","[7, 8, 14, 56]",7489146563,Ba3Si6N4O9
La3SiN4F,mp-1194197,1.9716000000000005,8.13757459,0.0,icsd-429558,"{57: 3, 14: 1, 7: 4, 9: 1}","[7, 9, 14, 57]",7491141573,La3Si1N4F1
LaSi3N5,mp-1019967,3.0992999999999995,7.13580877,0.0,icsd-130022,"{57: 1, 14: 3, 7: 5}","[7, 14, 57]",75143571,La1Si3N5
CeSi3N5,mp-29466,0.11899999999999977,9.1025792,0.0,icsd-402910,"{58: 1, 14: 3, 7: 5}","[7, 14, 58]",75143581,Ce1Si3N5
Ba3Ca2(SiN3)2,mp-1019520,1.565,3.85073957,0.0,icsd-187336,"{56: 3, 20: 2, 14: 2, 7: 6}","[7, 14, 20, 56]",76142202563,Ba3Ca2Si2N6
Ca5(SiN3)2,mp-571333,2.1605,4.32042853,0.0,icsd-414462,"{20: 5, 14: 2, 7: 6}","[7, 14, 20]",76142205,Ca5Si2N6
BaYSi4N7,mp-11670,2.7326999999999995,5.75001054,0.0,icsd-98276,"{56: 1, 39: 1, 14: 4, 7: 7}","[7, 14, 39, 56]",77144391561,Ba1Y1Si4N7
EuYSi4N7,mp-22517,0.0,9.05542438,0.0,icsd-150460,"{63: 1, 39: 1, 14: 4, 7: 7}","[7, 14, 39, 63]",77144391631,Eu1Y1Si4N7
Ca2Si5N8,mp-28922,3.344899999999999,5.23671039,0.0,icsd-79070,"{20: 2, 14: 5, 7: 8}","[7, 14, 20]",78145202,Ca2Si5N8
Sr2Si5N8,mp-9710,3.1972000000000005,5.66269505,0.0,icsd-401500,"{38: 2, 14: 5, 7: 8}","[7, 14, 38]",78145382,Sr2Si5N8
Ba2Si5N8,mp-9711,2.8815999999999997,5.58122975,0.0,icsd-401501,"{56: 2, 14: 5, 7: 8}","[7, 14, 56]",78145562,Ba2Si5N8