formula,material_id,band_gap,efermi,energy_above_hull,database_IDs,comp_atoms,sorted_keys_comp_atoms,comp_number,new_formula
Ca3(SiP2)2,mp-1194866,0.8441999999999998,4.5350868,0.0,icsd-428983,"{20: 3, 14: 2, 15: 4}","[14, 15, 20]",142154203,Ca3Si2P4
Cu5Si2S7,mp-510418,0.0,5.05334272,0.0,icsd-628848,"{29: 5, 14: 2, 16: 7}","[14, 16, 29]",142167295,Cu5Si2S7
La3Si2S8Cl,mp-556246,2.6154,4.31444645,0.0,icsd-412221,"{57: 3, 14: 2, 16: 8, 17: 1}","[14, 16, 17, 57]",142168171573,La3Si2S8Cl1
Ce3Si2S8Cl,mp-542133,0.10240000000000027,5.90847489,0.0,icsd-412222,"{58: 3, 14: 2, 16: 8, 17: 1}","[14, 16, 17, 58]",142168171583,Ce3Si2S8Cl1
Pr3Si2S8Cl,mp-556179,2.7409000000000003,3.00702307,0.0,icsd-412223,"{59: 3, 14: 2, 16: 8, 17: 1}","[14, 16, 17, 59]",142168171593,Pr3Si2S8Cl1
La3Si2S8Br,mp-560523,2.4924999999999997,4.30843046,0.0,icsd-411996,"{57: 3, 14: 2, 16: 8, 35: 1}","[14, 16, 35, 57]",142168351573,La3Si2S8Br1
Ce3Si2S8Br,mp-669378,0.08830000000000027,5.82390234,0.0,icsd-88691,"{58: 3, 14: 2, 16: 8, 35: 1}","[14, 16, 35, 58]",142168351583,Ce3Si2S8Br1
Pr3Si2S8Br,mp-560468,2.6881,3.07744792,0.0,icsd-411998,"{59: 3, 14: 2, 16: 8, 35: 1}","[14, 16, 35, 59]",142168351593,Pr3Si2S8Br1
Nd3Si2S8Br,mp-559237,2.664,3.17386706,0.0,icsd-411997,"{60: 3, 14: 2, 16: 8, 35: 1}","[14, 16, 35, 60]",142168351603,Nd3Si2S8Br1
Sm3Si2S8Br,mp-555527,2.3239,3.19416015,0.0,icsd-411999,"{62: 3, 14: 2, 16: 8, 35: 1}","[14, 16, 35, 62]",142168351623,Sm3Si2S8Br1
La3Si2S8I,mp-23090,2.5070000000000006,4.61274093,0.0,icsd-88692,"{57: 3, 14: 2, 16: 8, 53: 1}","[14, 16, 53, 57]",142168531573,La3Si2S8I1
Ce3Si2S8I,mp-555409,0.11010000000000009,6.02814648,0.0,icsd-86044,"{58: 3, 14: 2, 16: 8, 53: 1}","[14, 16, 53, 58]",142168531583,Ce3Si2S8I1
Pr3Si2S8I,mp-558259,2.5715,3.53920519,0.0,icsd-411781,"{59: 3, 14: 2, 16: 8, 53: 1}","[14, 16, 53, 59]",142168531593,Pr3Si2S8I1
Nd3Si2S8I,mp-561126,2.3333,3.45873773,0.0,icsd-411782,"{60: 3, 14: 2, 16: 8, 53: 1}","[14, 16, 53, 60]",142168531603,Nd3Si2S8I1
Sm3Si2S8I,mp-560356,2.5736,3.51014001,0.0,icsd-411783,"{62: 3, 14: 2, 16: 8, 53: 1}","[14, 16, 53, 62]",142168531623,Sm3Si2S8I1
CaSi2,mp-2699,0.0,5.41643731,0.0,icsd-619593,"{20: 1, 14: 2}","[14, 20]",142201,Ca1Si2
Ca(CoSi)2,mp-1070152,0.0,6.13030536,0.0,icsd-420974,"{20: 1, 27: 2, 14: 2}","[14, 20, 27]",142201272,Ca1Co2Si2
Ca(CuSi)2,mp-5486,0.0,6.480243,0.0,icsd-619238,"{20: 1, 29: 2, 14: 2}","[14, 20, 29]",142201292,Ca1Cu2Si2
Ca(SiRh)2,mp-1069956,0.0,6.58540012,0.0,icsd-425469,"{20: 1, 14: 2, 45: 2}","[14, 20, 45]",142201452,Ca1Si2Rh2
Ca(SiPd)2,mp-567769,0.0,5.68756552,0.0,icsd-619506,"{20: 1, 14: 2, 46: 2}","[14, 20, 46]",142201462,Ca1Si2Pd2
Ca(SiAu)2,mp-7364,0.0,5.92197758,0.0,icsd-412,"{20: 1, 14: 2, 79: 2}","[14, 20, 79]",142201792,Ca1Si2Au2
Ca3(SiAs2)2,mp-540696,0.823,3.87708205,0.0,icsd-16456,"{20: 3, 14: 2, 33: 4}","[14, 20, 33]",142203334,Ca3Si2As4
ScMnSi2,mp-1205070,0.0,7.68990452,0.0,icsd-643558,"{21: 1, 25: 1, 14: 2}","[14, 21, 25]",142211251,Sc1Mn1Si2
Sc(FeSi)2,mp-505554,0.0,7.55193435,0.0,icsd-633456,"{21: 1, 26: 2, 14: 2}","[14, 21, 26]",142211262,Sc1Fe2Si2
Sc(Fe2Si)2,mp-1104929,0.0,6.82142798,0.0,icsd-633444,"{21: 1, 26: 4, 14: 2}","[14, 21, 26]",142211264,Sc1Fe4Si2
Sc(CoSi)2,mp-4131,0.0,7.1932128,0.0,icsd-624959,"{21: 1, 27: 2, 14: 2}","[14, 21, 27]",142211272,Sc1Co2Si2
Sc(CuSi)2,mp-6969,0.0,7.77608045,0.0,icsd-60379,"{21: 1, 29: 2, 14: 2}","[14, 21, 29]",142211292,Sc1Cu2Si2
ScSi2Rh,mp-22307,0.0,7.94140232,0.0,icsd-15248,"{21: 1, 14: 2, 45: 1}","[14, 21, 45]",142211451,Sc1Si2Rh1
Pr2ScSi2,mp-1205499,0.0,4.87871241,0.0,pf-37888,"{59: 2, 21: 1, 14: 2}","[14, 21, 59]",142211592,Pr2Sc1Si2
Nd2ScSi2,mp-20647,0.0,4.86711553,0.0,icsd-85942,"{60: 2, 21: 1, 14: 2}","[14, 21, 60]",142211602,Nd2Sc1Si2
Sm2ScSi2,mp-1205812,0.0,4.76953812,0.0,pf-1859,"{62: 2, 21: 1, 14: 2}","[14, 21, 62]",142211622,Sm2Sc1Si2
Sc2FeSi2,mp-3618,0.0,6.39803843,0.0,icsd-633455,"{21: 2, 26: 1, 14: 2}","[14, 21, 26]",142212261,Sc2Fe1Si2
Sc2CoSi2,mp-9902,0.0,6.46034083,0.0,icsd-41746,"{21: 2, 27: 1, 14: 2}","[14, 21, 27]",142212271,Sc2Co1Si2
Sc2Si2Pt3,mp-1104406,0.0,7.5635512,0.0,icsd-247425,"{21: 2, 14: 2, 78: 3}","[14, 21, 78]",142212783,Sc2Si2Pt3
Sc4Si2Pt7,mp-1193821,0.0,7.18076411,0.0,icsd-420438,"{21: 4, 14: 2, 78: 7}","[14, 21, 78]",142214787,Sc4Si2Pt7
TiSi2,mp-1077503,0.0,9.52663801,0.0,icsd-652419,"{22: 1, 14: 2}","[14, 22]",142221,Ti1Si2
TiMnSi2,mp-21606,0.0,8.74990841,0.0,icsd-643674,"{22: 1, 25: 1, 14: 2}","[14, 22, 25]",142221251,Ti1Mn1Si2
TiFeSi2,mp-21662,0.0,8.80876096,0.0,icsd-633591,"{22: 1, 26: 1, 14: 2}","[14, 22, 26]",142221261,Ti1Fe1Si2
VSi2,mp-10711,0.0,9.90267122,0.0,icsd-652528,"{23: 1, 14: 2}","[14, 23]",142231,V1Si2
CrSi2,mp-8937,0.0,10.6418379,0.0,icsd-71499,"{24: 1, 14: 2}","[14, 24]",142241,Cr1Si2
HfCrSi2,mp-1204660,0.0,8.07613086,0.0,icsd-626159,"{72: 1, 24: 1, 14: 2}","[14, 24, 72]",142241721,Hf1Cr1Si2
LaMnSi2,mp-3213,0.0,8.38106022,0.0,icsd-641446,"{57: 1, 25: 1, 14: 2}","[14, 25, 57]",142251571,La1Mn1Si2
CeMnSi2,mp-5901,0.0,8.27838971,0.0,icsd-621530,"{58: 1, 25: 1, 14: 2}","[14, 25, 58]",142251581,Ce1Mn1Si2
NdMnSi2,mp-9527,0.0,6.38647808,0.0,icsd-643055,"{60: 1, 25: 1, 14: 2}","[14, 25, 60]",142251601,Nd1Mn1Si2
SmMnSi2,mp-1078797,0.0,6.45282417,0.0,icsd-643649,"{62: 1, 25: 1, 14: 2}","[14, 25, 62]",142251621,Sm1Mn1Si2
HfMnSi2,mp-1203090,0.0,8.18253423,0.0,icsd-638603,"{72: 1, 25: 1, 14: 2}","[14, 25, 72]",142251721,Hf1Mn1Si2
Y(MnSi)2,mp-3854,0.0,6.42527359,0.0,icsd-643695,"{39: 1, 25: 2, 14: 2}","[14, 25, 39]",142252391,Y1Mn2Si2
La(MnSi)2,mp-5069,0.0,7.93690989,0.0,icsd-80509,"{57: 1, 25: 2, 14: 2}","[14, 25, 57]",142252571,La1Mn2Si2
Ce(MnSi)2,mp-2965,0.0,7.69178472,0.0,icsd-621535,"{58: 1, 25: 2, 14: 2}","[14, 25, 58]",142252581,Ce1Mn2Si2
Pr(MnSi)2,mp-5423,0.0,6.26281408,0.0,icsd-72476,"{59: 1, 25: 2, 14: 2}","[14, 25, 59]",142252591,Pr1Mn2Si2
Nd(MnSi)2,mp-3018,0.0,6.2500818,0.0,icsd-643052,"{60: 1, 25: 2, 14: 2}","[14, 25, 60]",142252601,Nd1Mn2Si2
Sm(MnSi)2,mp-13473,0.0,6.18321476,0.0,icsd-76229,"{62: 1, 25: 2, 14: 2}","[14, 25, 62]",142252621,Sm1Mn2Si2
Tb(MnSi)2,mp-5677,0.0,6.37750847,0.0,icsd-643658,"{65: 1, 25: 2, 14: 2}","[14, 25, 65]",142252651,Tb1Mn2Si2
Dy(MnSi)2,mp-4985,0.0,6.36782298,0.0,icsd-657197,"{66: 1, 25: 2, 14: 2}","[14, 25, 66]",142252661,Dy1Mn2Si2
Ho(MnSi)2,mp-5796,0.0,6.33965782,0.0,icsd-55812,"{67: 1, 25: 2, 14: 2}","[14, 25, 67]",142252671,Ho1Mn2Si2
Er(MnSi)2,mp-4729,0.0,6.36401105,0.0,icsd-55771,"{68: 1, 25: 2, 14: 2}","[14, 25, 68]",142252681,Er1Mn2Si2
Tm(MnSi)2,mp-1207007,0.0,6.37539807,0.0,pf-23207,"{69: 1, 25: 2, 14: 2}","[14, 25, 69]",142252691,Tm1Mn2Si2
Lu(MnSi)2,mp-1207112,0.0,6.36026166,0.0,pf-2229,"{71: 1, 25: 2, 14: 2}","[14, 25, 71]",142252711,Lu1Mn2Si2
Th(MnSi)2,mp-4458,0.0,7.81518517,0.0,icsd-643666,"{90: 1, 25: 2, 14: 2}","[14, 25, 90]",142252901,Th1Mn2Si2
FeSi2,mp-1714,0.6966000000000001,9.10604776,0.0,icsd-23408,"{26: 1, 14: 2}","[14, 26]",142261,Fe1Si2
NbFeSi2,mp-1196167,0.0,8.5170558,0.0,icsd-632820,"{41: 1, 26: 1, 14: 2}","[14, 26, 41]",142261411,Nb1Fe1Si2
LaFeSi2,mp-1080643,0.0,8.43563288,0.0,icsd-632434,"{57: 1, 26: 1, 14: 2}","[14, 26, 57]",142261571,La1Fe1Si2
CeFeSi2,mp-1025450,0.0,8.40218313,0.0,pf-2938,"{58: 1, 26: 1, 14: 2}","[14, 26, 58]",142261581,Ce1Fe1Si2
PrFeSi2,mp-3275,0.0,6.41160181,0.0,icsd-67087,"{59: 1, 26: 1, 14: 2}","[14, 26, 59]",142261591,Pr1Fe1Si2
NdFeSi2,mp-4196,0.0,6.38163992,0.0,icsd-67089,"{60: 1, 26: 1, 14: 2}","[14, 26, 60]",142261601,Nd1Fe1Si2
SmFeSi2,mp-1207071,0.0,6.43228857,0.0,pf-41571,"{62: 1, 26: 1, 14: 2}","[14, 26, 62]",142261621,Sm1Fe1Si2
TbFeSi2,mp-1207018,0.0,6.69375817,0.0,pf-20696,"{65: 1, 26: 1, 14: 2}","[14, 26, 65]",142261651,Tb1Fe1Si2
Er2FeSi2,mp-31095,0.0,5.56770446,0.0,icsd-99216,"{68: 2, 26: 1, 14: 2}","[14, 26, 68]",142261682,Er2Fe1Si2
Tm2FeSi2,mp-1206971,0.0,5.56847552,0.0,pf-23068,"{69: 2, 26: 1, 14: 2}","[14, 26, 69]",142261692,Tm2Fe1Si2
HfFeSi2,mp-28378,0.0,8.22201794,0.0,icsd-62614,"{72: 1, 26: 1, 14: 2}","[14, 26, 72]",142261721,Hf1Fe1Si2
Y(FeSi)2,mp-5288,0.0,6.45403619,0.0,icsd-193616,"{39: 1, 26: 2, 14: 2}","[14, 26, 39]",142262391,Y1Fe2Si2
La(FeSi)2,mp-4088,0.0,8.09642078,0.0,icsd-53491,"{57: 1, 26: 2, 14: 2}","[14, 26, 57]",142262571,La1Fe2Si2
Ce(FeSi)2,mp-3035,0.0,8.03575864,0.0,icsd-621079,"{58: 1, 26: 2, 14: 2}","[14, 26, 58]",142262581,Ce1Fe2Si2
Pr(FeSi)2,mp-5627,0.0,6.29013072,0.0,icsd-53521,"{59: 1, 26: 2, 14: 2}","[14, 26, 59]",142262591,Pr1Fe2Si2
Nd(FeSi)2,mp-3489,0.0,6.23187909,0.0,icsd-169532,"{60: 1, 26: 2, 14: 2}","[14, 26, 60]",142262601,Nd1Fe2Si2
Sm(FeSi)2,mp-567859,0.0,6.16384982,0.0,icsd-633560,"{62: 1, 26: 2, 14: 2}","[14, 26, 62]",142262621,Sm1Fe2Si2
Eu(FeSi)2,mp-582357,0.0,5.81122922,0.0,icsd-631248,"{63: 1, 26: 2, 14: 2}","[14, 26, 63]",142262631,Eu1Fe2Si2
Gd(FeSi)2,mp-542986,0.0,6.23474039,0.0,icsd-631948,"{64: 1, 26: 2, 14: 2}","[14, 26, 64]",142262641,Gd1Fe2Si2
Tb(FeSi)2,mp-5399,0.0,6.36548167,0.0,icsd-53548,"{65: 1, 26: 2, 14: 2}","[14, 26, 65]",142262651,Tb1Fe2Si2
Dy(FeSi)2,mp-4939,0.0,6.38001403,0.0,icsd-629660,"{66: 1, 26: 2, 14: 2}","[14, 26, 66]",142262661,Dy1Fe2Si2
Ho(FeSi)2,mp-3191,0.0,6.36568148,0.0,icsd-632351,"{67: 1, 26: 2, 14: 2}","[14, 26, 67]",142262671,Ho1Fe2Si2
Er(FeSi)2,mp-5688,0.0,6.39235104,0.0,icsd-53389,"{68: 1, 26: 2, 14: 2}","[14, 26, 68]",142262681,Er1Fe2Si2
Tm(FeSi)2,mp-2938,0.0,6.36490269,0.0,icsd-71259,"{69: 1, 26: 2, 14: 2}","[14, 26, 69]",142262691,Tm1Fe2Si2
Lu(FeSi)2,mp-571098,0.0,6.45572312,0.0,icsd-632475,"{71: 1, 26: 2, 14: 2}","[14, 26, 71]",142262711,Lu1Fe2Si2
Th(FeSi)2,mp-7600,0.0,8.13214865,0.0,icsd-68209,"{90: 1, 26: 2, 14: 2}","[14, 26, 90]",142262901,Th1Fe2Si2
U(FeSi)2,mp-20924,0.0,9.4051814,0.0,icsd-633617,"{92: 1, 26: 2, 14: 2}","[14, 26, 92]",142262921,U1Fe2Si2
CoSi2,mp-2379,0.0,9.49187212,0.0,icsd-625030,"{27: 1, 14: 2}","[14, 27]",142271,Co1Si2
YCoSi2,mp-1078782,0.0,6.70405017,0.0,icsd-625129,"{39: 1, 27: 1, 14: 2}","[14, 27, 39]",142271391,Y1Co1Si2
Zr2CoSi2,mp-4022,0.0,6.55408501,0.0,icsd-653752,"{40: 2, 27: 1, 14: 2}","[14, 27, 40]",142271402,Zr2Co1Si2
LaCoSi2,mp-1206651,0.0,8.27284351,0.0,pf-35245,"{57: 1, 27: 1, 14: 2}","[14, 27, 57]",142271571,La1Co1Si2
CeCoSi2,mp-7095,0.0,8.37110209,0.0,icsd-620786,"{58: 1, 27: 1, 14: 2}","[14, 27, 58]",142271581,Ce1Co1Si2
NdCoSi2,mp-5170,0.0,6.36553925,0.0,icsd-83743,"{60: 1, 27: 1, 14: 2}","[14, 27, 60]",142271601,Nd1Co1Si2
SmCoSi2,mp-13478,0.0,6.30433776,0.0,icsd-625036,"{62: 1, 27: 1, 14: 2}","[14, 27, 62]",142271621,Sm1Co1Si2
TbCoSi2,mp-4969,0.0,6.62461559,0.0,icsd-625056,"{65: 1, 27: 1, 14: 2}","[14, 27, 65]",142271651,Tb1Co1Si2
DyCoSi2,mp-8742,0.0,6.61169448,0.0,icsd-193393,"{66: 1, 27: 1, 14: 2}","[14, 27, 66]",142271661,Dy1Co1Si2
HoCoSi2,mp-8743,0.0,6.69186998,0.0,icsd-67010,"{67: 1, 27: 1, 14: 2}","[14, 27, 67]",142271671,Ho1Co1Si2
ErCoSi2,mp-3128,0.0,6.60023408,0.0,icsd-73621,"{68: 1, 27: 1, 14: 2}","[14, 27, 68]",142271681,Er1Co1Si2
Tm2CoSi2,mp-1205659,0.0,5.5696342,0.0,pf-12621,"{69: 2, 27: 1, 14: 2}","[14, 27, 69]",142271692,Tm2Co1Si2
ThCoSi2,mp-1206216,0.0,8.32971319,0.0,pf-38178,"{90: 1, 27: 1, 14: 2}","[14, 27, 90]",142271901,Th1Co1Si2
Sr(CoSi)2,mp-1069057,0.0,5.34682335,0.0,icsd-425470,"{38: 1, 27: 2, 14: 2}","[14, 27, 38]",142272381,Sr1Co2Si2
Y(CoSi)2,mp-5129,0.0,6.70540407,0.0,icsd-427109,"{39: 1, 27: 2, 14: 2}","[14, 27, 39]",142272391,Y1Co2Si2
Zr(CoSi)2,mp-569344,0.0,7.53616705,0.0,icsd-625135,"{40: 1, 27: 2, 14: 2}","[14, 27, 40]",142272401,Zr1Co2Si2
La(CoSi)2,mp-5526,0.0,8.23204918,0.0,icsd-52999,"{57: 1, 27: 2, 14: 2}","[14, 27, 57]",142272571,La1Co2Si2
Ce(CoSi)2,mp-3437,0.0,8.26456701,0.0,icsd-107206,"{58: 1, 27: 2, 14: 2}","[14, 27, 58]",142272581,Ce1Co2Si2
Pr(CoSi)2,mp-5112,0.0,6.46346816,0.0,icsd-55923,"{59: 1, 27: 2, 14: 2}","[14, 27, 59]",142272591,Pr1Co2Si2
Nd(CoSi)2,mp-4228,0.0,6.46935407,0.0,icsd-31420,"{60: 1, 27: 2, 14: 2}","[14, 27, 60]",142272601,Nd1Co2Si2
Sm(CoSi)2,mp-15968,0.0,6.41442258,0.0,icsd-53073,"{62: 1, 27: 2, 14: 2}","[14, 27, 62]",142272621,Sm1Co2Si2
Eu(CoSi)2,mp-672294,0.0,6.04566205,0.0,icsd-622874,"{63: 1, 27: 2, 14: 2}","[14, 27, 63]",142272631,Eu1Co2Si2
Gd(CoSi)2,mp-542985,0.0,6.46826819,0.0,icsd-106820,"{64: 1, 27: 2, 14: 2}","[14, 27, 64]",142272641,Gd1Co2Si2
Tb(CoSi)2,mp-3292,0.0,6.66964729,0.0,icsd-53077,"{65: 1, 27: 2, 14: 2}","[14, 27, 65]",142272651,Tb1Co2Si2
Dy(CoSi)2,mp-5976,0.0,6.67458432,0.0,icsd-657154,"{66: 1, 27: 2, 14: 2}","[14, 27, 66]",142272661,Dy1Co2Si2
Ho(CoSi)2,mp-5835,0.0,6.65299936,0.0,icsd-31424,"{67: 1, 27: 2, 14: 2}","[14, 27, 67]",142272671,Ho1Co2Si2
Er(CoSi)2,mp-3239,0.0,6.68841904,0.0,icsd-55759,"{68: 1, 27: 2, 14: 2}","[14, 27, 68]",142272681,Er1Co2Si2
Tm(CoSi)2,mp-3262,0.0,6.67855749,0.0,icsd-53083,"{69: 1, 27: 2, 14: 2}","[14, 27, 69]",142272691,Tm1Co2Si2
Hf(CoSi)2,mp-571367,0.0,7.81061176,0.0,icsd-623793,"{72: 1, 27: 2, 14: 2}","[14, 27, 72]",142272721,Hf1Co2Si2
Th(CoSi)2,mp-7072,0.0,8.12006432,0.0,icsd-68210,"{90: 1, 27: 2, 14: 2}","[14, 27, 90]",142272901,Th1Co2Si2
U(CoSi)2,mp-21429,0.0,9.48662534,0.0,icsd-53084,"{92: 1, 27: 2, 14: 2}","[14, 27, 92]",142272921,U1Co2Si2
Np(CoSi)2,mp-21130,0.0,10.12863442,0.0,icsd-53056,"{93: 1, 27: 2, 14: 2}","[14, 27, 93]",142272931,Np1Co2Si2
Pu(CoSi)2,mp-22383,0.0,9.55503764,0.0,icsd-73027,"{94: 1, 27: 2, 14: 2}","[14, 27, 94]",142272941,Pu1Co2Si2
ErCo3Si2,mp-1103425,0.0,6.48950875,0.0,icsd-426847,"{68: 1, 27: 3, 14: 2}","[14, 27, 68]",142273681,Er1Co3Si2
HfCuSi2,mp-20401,0.0,7.63416244,0.0,icsd-87174,"{72: 1, 29: 1, 14: 2}","[14, 29, 72]",142291721,Hf1Cu1Si2
Sr(CuSi)2,mp-7877,0.0,6.07496121,0.0,icsd-25313,"{38: 1, 29: 2, 14: 2}","[14, 29, 38]",142292381,Sr1Cu2Si2
Y(CuSi)2,mp-3390,0.0,7.43007008,0.0,icsd-629221,"{39: 1, 29: 2, 14: 2}","[14, 29, 39]",142292391,Y1Cu2Si2
La(CuSi)2,mp-3995,0.0,8.67720379,0.0,icsd-164067,"{57: 1, 29: 2, 14: 2}","[14, 29, 57]",142292571,La1Cu2Si2
Ce(CuSi)2,mp-5452,0.0,8.53882257,0.0,icsd-620951,"{58: 1, 29: 2, 14: 2}","[14, 29, 58]",142292581,Ce1Cu2Si2
Pr(CuSi)2,mp-4014,0.0,7.11660493,0.0,icsd-106876,"{59: 1, 29: 2, 14: 2}","[14, 29, 59]",142292591,Pr1Cu2Si2
Nd(CuSi)2,mp-2877,0.0,7.14624292,0.0,icsd-628536,"{60: 1, 29: 2, 14: 2}","[14, 29, 60]",142292601,Nd1Cu2Si2
Sm(CuSi)2,mp-3997,0.0,7.09719254,0.0,icsd-164071,"{62: 1, 29: 2, 14: 2}","[14, 29, 62]",142292621,Sm1Cu2Si2
Eu(CuSi)2,mp-3412,0.0,6.2454969,0.0,icsd-627289,"{63: 1, 29: 2, 14: 2}","[14, 29, 63]",142292631,Eu1Cu2Si2
Gd(CuSi)2,mp-20677,0.0,7.05965696,0.0,icsd-627655,"{64: 1, 29: 2, 14: 2}","[14, 29, 64]",142292641,Gd1Cu2Si2
Tb(CuSi)2,mp-3456,0.0,7.36312816,0.0,icsd-53346,"{65: 1, 29: 2, 14: 2}","[14, 29, 65]",142292651,Tb1Cu2Si2
Dy(CuSi)2,mp-2917,0.0,7.32313287,0.0,icsd-627189,"{66: 1, 29: 2, 14: 2}","[14, 29, 66]",142292661,Dy1Cu2Si2
Ho(CuSi)2,mp-4105,0.0,7.32906416,0.0,icsd-169357,"{67: 1, 29: 2, 14: 2}","[14, 29, 67]",142292671,Ho1Cu2Si2
Er(CuSi)2,mp-4305,0.0,7.38590612,0.0,icsd-165440,"{68: 1, 29: 2, 14: 2}","[14, 29, 68]",142292681,Er1Cu2Si2
Tm(CuSi)2,mp-4903,0.0,7.39203849,0.0,icsd-629210,"{69: 1, 29: 2, 14: 2}","[14, 29, 69]",142292691,Tm1Cu2Si2
Lu(CuSi)2,mp-5346,0.0,7.44193169,0.0,icsd-106846,"{71: 1, 29: 2, 14: 2}","[14, 29, 71]",142292711,Lu1Cu2Si2
Th(CuSi)2,mp-5948,0.0,8.85628242,0.0,icsd-18160,"{90: 1, 29: 2, 14: 2}","[14, 29, 90]",142292901,Th1Cu2Si2
U(CuSi)2,mp-22374,0.0,9.49927319,0.0,icsd-629213,"{92: 1, 29: 2, 14: 2}","[14, 29, 92]",142292921,U1Cu2Si2
Zr3(Cu2Si)2,mp-7930,0.0,6.57851661,0.0,icsd-26260,"{40: 3, 29: 4, 14: 2}","[14, 29, 40]",142294403,Zr3Cu4Si2
Hf3(Cu2Si)2,mp-15987,0.0,7.12446571,0.0,icsd-53288,"{72: 3, 29: 4, 14: 2}","[14, 29, 72]",142294723,Hf3Cu4Si2
Ba(ZnSi)2,mp-1070267,0.0,4.52216721,0.0,icsd-174269,"{56: 1, 30: 2, 14: 2}","[14, 30, 56]",142302561,Ba1Zn2Si2
Eu(ZnSi)2,mp-22133,0.0,5.28212957,0.0,icsd-51756,"{63: 1, 30: 2, 14: 2}","[14, 30, 63]",142302631,Eu1Zn2Si2
Pr5Si2Ge,mp-1188522,0.0,4.49261915,0.0,icsd-637632,"{59: 5, 14: 2, 32: 1}","[14, 32, 59]",142321595,Pr5Si2Ge1
Sr3(SiAs2)2,mp-11677,0.9176000000000002,3.10171228,0.0,icsd-16453,"{38: 3, 14: 2, 33: 4}","[14, 33, 38]",142334383,Sr3Si2As4
Ba3(SiAs2)2,mp-11692,0.8265000000000002,2.71758774,0.0,icsd-41183,"{56: 3, 14: 2, 33: 4}","[14, 33, 56]",142334563,Ba3Si2As4
Eu3(SiAs2)2,mp-1199837,0.0,4.30479247,0.0,icsd-427139,"{63: 3, 14: 2, 33: 4}","[14, 33, 63]",142334633,Eu3Si2As4
Rb2Si2Se5,mp-1209497,2.3052,2.90030763,0.0,pf-3519,"{37: 2, 14: 2, 34: 5}","[14, 34, 37]",142345372,Rb2Si2Se5
Cs2Si2Se5,mp-542550,2.4621,0.6251034,0.0,icsd-409816,"{55: 2, 14: 2, 34: 5}","[14, 34, 55]",142345552,Cs2Si2Se5
Ta11(SiSe4)2,mp-1208587,0.0,6.04081493,0.0,pf-29477,"{73: 11, 14: 2, 34: 8}","[14, 34, 73]",1423487311,Ta11Si2Se8
SrSi2,mp-496,0.0,5.39625507,0.0,icsd-2860,"{38: 1, 14: 2}","[14, 38]",142381,Sr1Si2
Sr(SiPd)2,mp-568402,0.0,5.28703498,0.0,icsd-648864,"{38: 1, 14: 2, 46: 2}","[14, 38, 46]",142381462,Sr1Si2Pd2
Sr(SiAg)2,mp-7880,0.0,4.44923685,0.0,icsd-25330,"{38: 1, 14: 2, 47: 2}","[14, 38, 47]",142381472,Sr1Si2Ag2
Sr(SiAu)2,mp-7365,0.0,5.5500807,0.0,icsd-413,"{38: 1, 14: 2, 79: 2}","[14, 38, 79]",142381792,Sr1Si2Au2
Y(SiRu)2,mp-568673,0.0,6.97383098,0.0,icsd-427111,"{39: 1, 14: 2, 44: 2}","[14, 39, 44]",142391442,Y1Si2Ru2
Y(SiRh)2,mp-3441,0.0,7.15469218,0.0,icsd-602257,"{39: 1, 14: 2, 45: 2}","[14, 39, 45]",142391452,Y1Si2Rh2
YSi2Rh3,mp-1102541,0.0,7.05218006,0.0,icsd-650345,"{39: 1, 14: 2, 45: 3}","[14, 39, 45]",142391453,Y1Si2Rh3
Y(SiPd)2,mp-4822,0.0,6.2530202,0.0,icsd-648889,"{39: 1, 14: 2, 46: 2}","[14, 39, 46]",142391462,Y1Si2Pd2
Y(Re2Si)2,mp-9906,0.0,7.21686818,0.0,icsd-41760,"{39: 1, 75: 4, 14: 2}","[14, 39, 75]",142391754,Y1Re4Si2
Y(SiOs)2,mp-567749,0.0,7.1139924,0.0,icsd-647804,"{39: 1, 14: 2, 76: 2}","[14, 39, 76]",142391762,Y1Si2Os2
Y(SiIr)2,mp-4653,0.0,8.25838489,0.0,icsd-44667,"{39: 1, 14: 2, 77: 2}","[14, 39, 77]",142391772,Y1Si2Ir2
Y(SiPt)2,mp-1080646,0.0,7.37704834,0.0,icsd-649646,"{39: 1, 14: 2, 78: 2}","[14, 39, 78]",142391782,Y1Si2Pt2
Y(SiAu)2,mp-570452,0.0,6.97358949,0.0,icsd-55943,"{39: 1, 14: 2, 79: 2}","[14, 39, 79]",142391792,Y1Si2Au2
Y2Si2Rh,mp-31011,0.0,5.82850573,0.0,icsd-48176,"{39: 2, 14: 2, 45: 1}","[14, 39, 45]",142392451,Y2Si2Rh1
Y3(SiRh)2,mp-504772,0.0,5.54986619,0.0,icsd-30725,"{39: 3, 14: 2, 45: 2}","[14, 39, 45]",142393452,Y3Si2Rh2
Y5(SiSb)2,mp-1207727,0.0,5.38347601,0.0,pf-2727,"{39: 5, 14: 2, 51: 2}","[14, 39, 51]",142395512,Y5Si2Sb2
ZrSi2,mp-1515,0.0,7.91485625,0.0,icsd-95179,"{40: 1, 14: 2}","[14, 40]",142401,Zr1Si2
Zr3Si2,mp-1207024,0.0,5.96973711,0.0,pf-24146,"{40: 3, 14: 2}","[14, 40]",142403,Zr3Si2
NbSi2,mp-12104,0.0,8.7813181,0.0,icsd-645450,"{41: 1, 14: 2}","[14, 41]",142411,Nb1Si2
Si2Mo,mp-2592,0.0,10.80167203,0.0,icsd-182115,"{14: 2, 42: 1}","[14, 42]",142421,Si2Mo1
Th(SiTc)2,mp-8375,0.0,8.32423507,0.0,icsd-73028,"{90: 1, 14: 2, 43: 2}","[14, 43, 90]",142432901,Th1Si2Tc2
Si2Ru,mp-569815,0.4067000000000007,9.5100627,0.0,icsd-154012,"{14: 2, 44: 1}","[14, 44]",142441,Si2Ru1
LaSi2Ru,mp-28795,0.0,8.70699886,0.0,icsd-71960,"{57: 1, 14: 2, 44: 1}","[14, 44, 57]",142441571,La1Si2Ru1
CeSi2Ru,mp-1025521,0.0,8.44833541,0.0,icsd-656786,"{58: 1, 14: 2, 44: 1}","[14, 44, 58]",142441581,Ce1Si2Ru1
PrSi2Ru,mp-31083,0.0,6.8433876,0.0,icsd-99170,"{59: 1, 14: 2, 44: 1}","[14, 44, 59]",142441591,Pr1Si2Ru1
NdSi2Ru,mp-28665,0.0,6.80106432,0.0,icsd-66316,"{60: 1, 14: 2, 44: 1}","[14, 44, 60]",142441601,Nd1Si2Ru1
La(SiRu)2,mp-5105,0.0,8.50548209,0.0,icsd-641785,"{57: 1, 14: 2, 44: 2}","[14, 44, 57]",142442571,La1Si2Ru2
Ce(SiRu)2,mp-3566,0.0,8.34323168,0.0,icsd-55792,"{58: 1, 14: 2, 44: 2}","[14, 44, 58]",142442581,Ce1Si2Ru2
Pr(SiRu)2,mp-4904,0.0,6.71992915,0.0,icsd-55777,"{59: 1, 14: 2, 44: 2}","[14, 44, 59]",142442591,Pr1Si2Ru2
Nd(SiRu)2,mp-4013,0.0,6.6948938,0.0,icsd-645814,"{60: 1, 14: 2, 44: 2}","[14, 44, 60]",142442601,Nd1Si2Ru2
Sm(SiRu)2,mp-4072,0.0,6.6507523,0.0,icsd-55353,"{62: 1, 14: 2, 44: 2}","[14, 44, 62]",142442621,Sm1Si2Ru2
Eu(SiRu)2,mp-581736,0.0,6.25523833,0.0,icsd-631586,"{63: 1, 14: 2, 44: 2}","[14, 44, 63]",142442631,Eu1Si2Ru2
Gd(SiRu)2,mp-569302,0.0,6.77083497,0.0,icsd-57320,"{64: 1, 14: 2, 44: 2}","[14, 44, 64]",142442641,Gd1Si2Ru2