formula,material_id,band_gap,efermi,energy_above_hull,database_IDs,comp_atoms,sorted_keys_comp_atoms,comp_number,new_formula
ScSiPt,mp-9225,0.0,7.27573192,0.0,icsd-79597,"{21: 1, 14: 1, 78: 1}","[14, 21, 78]",141211781,Sc1Si1Pt1
ScSiPt2,mp-13572,0.0,7.69405512,0.0,icsd-420355,"{21: 1, 14: 1, 78: 2}","[14, 21, 78]",141211782,Sc1Si1Pt2
ScSiAu,mp-9023,0.0,6.96568834,0.0,icsd-71998,"{21: 1, 14: 1, 79: 1}","[14, 21, 79]",141211791,Sc1Si1Au1
Sc2Mn3Si,mp-1209009,0.0,6.32726498,0.0,pf-20792,"{21: 2, 25: 3, 14: 1}","[14, 21, 25]",141212253,Sc2Mn3Si1
Sc2Fe3Si,mp-1102564,0.0,5.91416505,0.0,icsd-633437,"{21: 2, 26: 3, 14: 1}","[14, 21, 26]",141212263,Sc2Fe3Si1
Sc2Co3Si,mp-27319,0.0,6.21407361,0.0,icsd-9966,"{21: 2, 27: 3, 14: 1}","[14, 21, 27]",141212273,Sc2Co3Si1
TiSi,mp-7092,0.0,8.1921141,0.0,icsd-652414,"{22: 1, 14: 1}","[14, 22]",141221,Ti1Si1
TiFeSi,mp-8648,0.0,7.71271642,0.0,icsd-41157,"{22: 1, 26: 1, 14: 1}","[14, 22, 26]",141221261,Ti1Fe1Si1
TiCoSi,mp-21306,0.0,7.58037489,0.0,icsd-165246,"{22: 1, 27: 1, 14: 1}","[14, 22, 27]",141221271,Ti1Co1Si1
TiCo2Si,mp-3657,0.0,8.10358595,0.0,icsd-625083,"{22: 1, 27: 2, 14: 1}","[14, 22, 27]",141221272,Ti1Co2Si1
TiCuSi,mp-20255,0.0,7.92202012,0.0,icsd-87197,"{22: 1, 29: 1, 14: 1}","[14, 22, 29]",141221291,Ti1Cu1Si1
YTiSi,mp-22179,0.0,5.1726735,0.0,icsd-88113,"{39: 1, 22: 1, 14: 1}","[14, 22, 39]",141221391,Y1Ti1Si1
TiSiRu,mp-11560,0.0,8.29411567,0.0,icsd-105924,"{22: 1, 14: 1, 44: 1}","[14, 22, 44]",141221441,Ti1Si1Ru1
TiSiRh,mp-672645,0.0,7.74143279,0.0,icsd-108723,"{22: 1, 14: 1, 45: 1}","[14, 22, 45]",141221451,Ti1Si1Rh1
TiSiPd,mp-1103162,0.0,7.24931525,0.0,icsd-648877,"{22: 1, 14: 1, 46: 1}","[14, 22, 46]",141221461,Ti1Si1Pd1
Sc5(Re2Si3)4,mp-28385,0.0,8.31845489,0.0,icsd-5412,"{21: 5, 75: 8, 14: 12}","[14, 21, 75]",1412215758,Sc5Re8Si12
TbTiSi,mp-22532,0.0,5.16633055,0.0,icsd-95186,"{65: 1, 22: 1, 14: 1}","[14, 22, 65]",141221651,Tb1Ti1Si1
DyTiSi,mp-20954,0.0,5.13421637,0.0,icsd-88116,"{66: 1, 22: 1, 14: 1}","[14, 22, 66]",141221661,Dy1Ti1Si1
HoTiSi,mp-22274,0.0,5.09585024,0.0,icsd-88117,"{67: 1, 22: 1, 14: 1}","[14, 22, 67]",141221671,Ho1Ti1Si1
ErTiSi,mp-20918,0.0,5.1096933,0.0,icsd-88118,"{68: 1, 22: 1, 14: 1}","[14, 22, 68]",141221681,Er1Ti1Si1
LuTiSi,mp-20478,0.0,5.14770837,0.0,icsd-88208,"{71: 1, 22: 1, 14: 1}","[14, 22, 71]",141221711,Lu1Ti1Si1
TiReSi,mp-1095145,0.0,8.14118789,0.0,icsd-650125,"{22: 1, 75: 1, 14: 1}","[14, 22, 75]",141221751,Ti1Re1Si1
TiSiOs,mp-1105654,0.0,8.46997355,0.0,icsd-647795,"{22: 1, 14: 1, 76: 1}","[14, 22, 76]",141221761,Ti1Si1Os1
TiSiIr,mp-1103248,0.0,8.73151956,0.0,icsd-641017,"{22: 1, 14: 1, 77: 1}","[14, 22, 77]",141221771,Ti1Si1Ir1
TiSiPt,mp-1102195,0.0,8.33149258,0.0,icsd-260794,"{22: 1, 14: 1, 78: 1}","[14, 22, 78]",141221781,Ti1Si1Pt1
Ti5SiSb2,mp-1208204,0.0,8.29537561,0.0,pf-26321,"{22: 5, 14: 1, 51: 2}","[14, 22, 51]",141225512,Ti5Si1Sb2
VFe2Si,mp-4595,0.0,8.71195696,0.0,icsd-633623,"{23: 1, 26: 2, 14: 1}","[14, 23, 26]",141231262,V1Fe2Si1
VCoSi,mp-21371,0.0,7.71164416,0.0,icsd-625120,"{23: 1, 27: 1, 14: 1}","[14, 23, 27]",141231271,V1Co1Si1
ZrVSi,mp-5541,0.0,6.22679015,0.0,icsd-42337,"{40: 1, 23: 1, 14: 1}","[14, 23, 40]",141231401,Zr1V1Si1
HfVSi,mp-1018720,0.0,6.63287749,0.0,icsd-638931,"{72: 1, 23: 1, 14: 1}","[14, 23, 72]",141231721,Hf1V1Si1
V3Si,mp-2567,0.0,7.35063881,0.0,icsd-652522,"{23: 3, 14: 1}","[14, 23]",141233,V3Si1
Ta2V3Si,mp-1095672,0.0,6.57507067,0.0,icsd-652343,"{73: 2, 23: 3, 14: 1}","[14, 23, 73]",141233732,Ta2V3Si1
CrSiTe3,mp-3779,0.0,4.38992867,0.0,icsd-71020,"{24: 1, 14: 1, 52: 3}","[14, 24, 52]",141241523,Cr1Si1Te3
Cr3Si,mp-729,0.0,8.58081601,0.0,icsd-16835,"{24: 3, 14: 1}","[14, 24]",141243,Cr3Si1
MnFe2Si,mp-5529,0.0,8.05121851,0.0,icsd-186061,"{25: 1, 26: 2, 14: 1}","[14, 25, 26]",141251262,Mn1Fe2Si1
MnCo2Si,mp-4492,0.0,7.54046291,0.0,icsd-624157,"{25: 1, 27: 2, 14: 1}","[14, 25, 27]",141251272,Mn1Co2Si1
MnCu2SiSe4,mp-1210824,0.4495,3.77859493,0.0,icsd-628396,"{25: 1, 29: 2, 14: 1, 34: 4}","[14, 25, 29, 34]",141251292344,Mn1Cu2Si1Se4
MnSi(AgSe2)2,mp-1210646,0.6252,2.93966608,0.0,pf-20403,"{25: 1, 14: 1, 47: 2, 34: 4}","[14, 25, 34, 47]",141251344472,Mn1Si1Ag2Se4
YMnSi,mp-21249,0.0,5.44346649,0.0,icsd-643705,"{39: 1, 25: 1, 14: 1}","[14, 25, 39]",141251391,Y1Mn1Si1
ZrMnSi,mp-22227,0.0,6.3609513,0.0,icsd-76236,"{40: 1, 25: 1, 14: 1}","[14, 25, 40]",141251401,Zr1Mn1Si1
MnNbSi,mp-7829,0.0,7.45112484,0.0,icsd-24185,"{25: 1, 41: 1, 14: 1}","[14, 25, 41]",141251411,Mn1Nb1Si1
LaMnSi,mp-19737,0.0,7.79123264,0.0,icsd-641449,"{57: 1, 25: 1, 14: 1}","[14, 25, 57]",141251571,La1Mn1Si1
SmMnSi,mp-1019102,0.0,5.14808597,0.0,icsd-643651,"{62: 1, 25: 1, 14: 1}","[14, 25, 62]",141251621,Sm1Mn1Si1
GdMnSi,mp-20553,0.0,5.13232148,0.0,icsd-635979,"{64: 1, 25: 1, 14: 1}","[14, 25, 64]",141251641,Gd1Mn1Si1
TbMnSi,mp-20822,0.0,5.42976292,0.0,icsd-57424,"{65: 1, 25: 1, 14: 1}","[14, 25, 65]",141251651,Tb1Mn1Si1
HfMnSi,mp-20192,0.0,6.81924173,0.0,icsd-638600,"{72: 1, 25: 1, 14: 1}","[14, 25, 72]",141251721,Hf1Mn1Si1
TaMnSi,mp-1105570,0.0,7.76404363,0.0,icsd-643652,"{73: 1, 25: 1, 14: 1}","[14, 25, 73]",141251731,Ta1Mn1Si1
MnSiIr,mp-21851,0.0,7.94817586,0.0,icsd-246548,"{25: 1, 14: 1, 77: 1}","[14, 25, 77]",141251771,Mn1Si1Ir1
Mn2SiSe4,mp-17367,0.0,3.46451866,0.0,icsd-80957,"{25: 2, 14: 1, 34: 4}","[14, 25, 34]",141252344,Mn2Si1Se4
U2Mn3Si,mp-1207954,0.0,10.62027378,0.0,pf-18109,"{92: 2, 25: 3, 14: 1}","[14, 25, 92]",141253922,U2Mn3Si1
BaSi12Pt5,mp-1214345,0.0,7.64799585,0.0,pf-28255,"{56: 1, 14: 12, 78: 5}","[14, 56, 78]",1412561785,Ba1Si12Pt5
FeSi,mp-871,0.18020000000000103,9.48775017,0.0,icsd-633543,"{26: 1, 14: 1}","[14, 26]",141261,Fe1Si1
ZrFeSi,mp-1102452,0.0,6.59900266,0.0,icsd-633674,"{40: 1, 26: 1, 14: 1}","[14, 26, 40]",141261401,Zr1Fe1Si1
NbFeSi,mp-1209887,0.0,7.10274097,0.0,pf-27048,"{41: 1, 26: 1, 14: 1}","[14, 26, 41]",141261411,Nb1Fe1Si1
FeSiRu2,mp-3464,0.0,8.72540956,0.0,icsd-633246,"{26: 1, 14: 1, 44: 2}","[14, 26, 44]",141261442,Fe1Si1Ru2
LaFeSi,mp-505332,0.0,7.82013748,0.0,icsd-85853,"{57: 1, 26: 1, 14: 1}","[14, 26, 57]",141261571,La1Fe1Si1
CeFeSi,mp-20245,0.0,7.9645232,0.0,icsd-656908,"{58: 1, 26: 1, 14: 1}","[14, 26, 58]",141261581,Ce1Fe1Si1
PrFeSi,mp-1018895,0.0,5.33830444,0.0,icsd-656909,"{59: 1, 26: 1, 14: 1}","[14, 26, 59]",141261591,Pr1Fe1Si1
NdFeSi,mp-20690,0.0,5.29380084,0.0,icsd-85854,"{60: 1, 26: 1, 14: 1}","[14, 26, 60]",141261601,Nd1Fe1Si1
SmFeSi,mp-1019100,0.0,5.224924,0.0,icsd-656911,"{62: 1, 26: 1, 14: 1}","[14, 26, 62]",141261621,Sm1Fe1Si1
TbFeSi,mp-21363,0.0,5.47638623,0.0,icsd-656913,"{65: 1, 26: 1, 14: 1}","[14, 26, 65]",141261651,Tb1Fe1Si1
DyFeSi,mp-22698,0.0,5.48148996,0.0,icsd-656914,"{66: 1, 26: 1, 14: 1}","[14, 26, 66]",141261661,Dy1Fe1Si1
HoFeSi,mp-1018725,0.0,5.46219613,0.0,icsd-632349,"{67: 1, 26: 1, 14: 1}","[14, 26, 67]",141261671,Ho1Fe1Si1
HfFeSi,mp-1102314,0.0,6.94518051,0.0,icsd-632263,"{72: 1, 26: 1, 14: 1}","[14, 26, 72]",141261721,Hf1Fe1Si1
TaFeSi,mp-1101943,0.0,7.68887203,0.0,icsd-633568,"{73: 1, 26: 1, 14: 1}","[14, 26, 73]",141261731,Ta1Fe1Si1
UFeSi,mp-20121,0.0,10.91173021,0.0,icsd-55537,"{92: 1, 26: 1, 14: 1}","[14, 26, 92]",141261921,U1Fe1Si1
Fe2CoSi,mp-1207117,0.0,7.75925315,0.0,pf-5567,"{26: 2, 27: 1, 14: 1}","[14, 26, 27]",141262271,Fe2Co1Si1
Fe3Si,mp-2199,0.0,7.72918545,0.0,icsd-56281,"{26: 3, 14: 1}","[14, 26]",141263,Fe3Si1
Zr2Fe3Si,mp-16336,0.0,6.03667151,0.0,icsd-53558,"{40: 2, 26: 3, 14: 1}","[14, 26, 40]",141263402,Zr2Fe3Si1
CoSi,mp-7577,0.0,9.63997474,0.0,icsd-625024,"{27: 1, 14: 1}","[14, 27]",141271,Co1Si1
YCoSi,mp-1207632,0.0,5.88750477,0.0,pf-3591,"{39: 1, 27: 1, 14: 1}","[14, 27, 39]",141271391,Y1Co1Si1
ZrCoSi,mp-1102565,0.0,6.49591581,0.0,icsd-625144,"{40: 1, 27: 1, 14: 1}","[14, 27, 40]",141271401,Zr1Co1Si1
NbCoSi,mp-1095573,0.0,7.22888561,0.0,icsd-624322,"{41: 1, 27: 1, 14: 1}","[14, 27, 41]",141271411,Nb1Co1Si1
LaCoSi,mp-1018740,0.0,7.9722276,0.0,icsd-624027,"{57: 1, 27: 1, 14: 1}","[14, 27, 57]",141271571,La1Co1Si1
CeCoSi,mp-1018660,0.0,8.0625001,0.0,icsd-620788,"{58: 1, 27: 1, 14: 1}","[14, 27, 58]",141271581,Ce1Co1Si1
PrCoSi,mp-1018892,0.0,5.66774009,0.0,icsd-658267,"{59: 1, 27: 1, 14: 1}","[14, 27, 59]",141271591,Pr1Co1Si1
NdCoSi,mp-21890,0.0,5.57903629,0.0,icsd-80514,"{60: 1, 27: 1, 14: 1}","[14, 27, 60]",141271601,Nd1Co1Si1
SmCoSi,mp-1019108,0.0,5.65182592,0.0,icsd-625037,"{62: 1, 27: 1, 14: 1}","[14, 27, 62]",141271621,Sm1Co1Si1
GdCoSi,mp-1077133,0.0,5.3723973,0.0,icsd-658270,"{64: 1, 27: 1, 14: 1}","[14, 27, 64]",141271641,Gd1Co1Si1
TbCoSi,mp-21203,0.0,5.70194472,0.0,icsd-80515,"{65: 1, 27: 1, 14: 1}","[14, 27, 65]",141271651,Tb1Co1Si1
DyCoSi,mp-19767,0.0,5.87310479,0.0,icsd-88272,"{66: 1, 27: 1, 14: 1}","[14, 27, 66]",141271661,Dy1Co1Si1
HoCoSi,mp-510688,0.0,5.79464495,0.0,icsd-107115,"{67: 1, 27: 1, 14: 1}","[14, 27, 67]",141271671,Ho1Co1Si1
ErCoSi,mp-1102621,0.0,5.87125874,0.0,icsd-601847,"{68: 1, 27: 1, 14: 1}","[14, 27, 68]",141271681,Er1Co1Si1
TmCoSi,mp-1102633,0.0,5.78405468,0.0,icsd-601848,"{69: 1, 27: 1, 14: 1}","[14, 27, 69]",141271691,Tm1Co1Si1
LuCoSi,mp-1102787,0.0,5.80034922,0.0,icsd-601849,"{71: 1, 27: 1, 14: 1}","[14, 27, 71]",141271711,Lu1Co1Si1
HfCoSi,mp-1103227,0.0,6.93673541,0.0,icsd-623795,"{72: 1, 27: 1, 14: 1}","[14, 27, 72]",141271721,Hf1Co1Si1
TaCoSi,mp-1102650,0.0,7.80598584,0.0,icsd-625050,"{73: 1, 27: 1, 14: 1}","[14, 27, 73]",141271731,Ta1Co1Si1
Co2Si,mp-19905,0.0,8.31134351,0.0,icsd-44858,"{27: 2, 14: 1}","[14, 27]",141272,Co2Si1
Nb2Co3Si,mp-10366,0.0,6.71168609,0.0,icsd-53018,"{41: 2, 27: 3, 14: 1}","[14, 27, 41]",141273412,Nb2Co3Si1
U2Co3Si,mp-1102105,0.0,10.9332697,0.0,icsd-61019,"{92: 2, 27: 3, 14: 1}","[14, 27, 92]",141273922,U2Co3Si1
ZrCuSiAs,mp-9929,0.0,7.22569749,0.0,icsd-42165,"{40: 1, 29: 1, 14: 1, 33: 1}","[14, 29, 33, 40]",141291331401,Zr1Cu1Si1As1
HfCuSiAs,mp-1079332,0.0,7.58165346,0.0,icsd-185856,"{72: 1, 29: 1, 14: 1, 33: 1}","[14, 29, 33, 72]",141291331721,Hf1Cu1Si1As1
Y3CuSiSe7,mp-568638,1.5105,3.95541611,0.0,icsd-152793,"{39: 3, 29: 1, 14: 1, 34: 7}","[14, 29, 34, 39]",141291347393,Y3Cu1Si1Se7
La3CuSiSe7,mp-568082,1.5373,5.02311509,0.0,icsd-156281,"{57: 3, 29: 1, 14: 1, 34: 7}","[14, 29, 34, 57]",141291347573,La3Cu1Si1Se7
Ce3CuSiSe7,mp-571472,0.0,5.98998562,0.0,icsd-620911,"{58: 3, 29: 1, 14: 1, 34: 7}","[14, 29, 34, 58]",141291347583,Ce3Cu1Si1Se7
Pr3CuSiSe7,mp-568801,1.3632999999999997,3.74246648,0.0,icsd-156283,"{59: 3, 29: 1, 14: 1, 34: 7}","[14, 29, 34, 59]",141291347593,Pr3Cu1Si1Se7
Nd3CuSiSe7,mp-641534,1.1291000000000002,3.70415431,0.0,icsd-156284,"{60: 3, 29: 1, 14: 1, 34: 7}","[14, 29, 34, 60]",141291347603,Nd3Cu1Si1Se7
Sm3CuSiSe7,mp-570045,1.4373999999999998,3.80325121,0.0,icsd-156285,"{62: 3, 29: 1, 14: 1, 34: 7}","[14, 29, 34, 62]",141291347623,Sm3Cu1Si1Se7
Gd3CuSiSe7,mp-641576,0.8443999999999998,3.78560046,0.0,icsd-156286,"{64: 3, 29: 1, 14: 1, 34: 7}","[14, 29, 34, 64]",141291347643,Gd3Cu1Si1Se7
Tb3CuSiSe7,mp-568779,1.4882,3.85910054,0.0,icsd-629074,"{65: 3, 29: 1, 14: 1, 34: 7}","[14, 29, 34, 65]",141291347653,Tb3Cu1Si1Se7
Dy3CuSiSe7,mp-569557,1.5196000000000005,3.97592453,0.0,icsd-156288,"{66: 3, 29: 1, 14: 1, 34: 7}","[14, 29, 34, 66]",141291347663,Dy3Cu1Si1Se7
SrCuSi,mp-1206169,0.0,4.50967319,0.0,pf-17336,"{38: 1, 29: 1, 14: 1}","[14, 29, 38]",141291381,Sr1Cu1Si1
YCuSi,mp-8126,0.0,5.8057438,0.0,icsd-30772,"{39: 1, 29: 1, 14: 1}","[14, 29, 39]",141291391,Y1Cu1Si1
ZrCuSi,mp-22522,0.0,6.88562639,0.0,icsd-87198,"{40: 1, 29: 1, 14: 1}","[14, 29, 40]",141291401,Zr1Cu1Si1
LaCuSi,mp-4835,0.0,7.70025365,0.0,icsd-84207,"{57: 1, 29: 1, 14: 1}","[14, 29, 57]",141291571,La1Cu1Si1
CeCuSi,mp-22740,0.0,7.49687908,0.0,icsd-156392,"{58: 1, 29: 1, 14: 1}","[14, 29, 58]",141291581,Ce1Cu1Si1
PrCuSi,mp-8119,0.0,5.34297487,0.0,icsd-30761,"{59: 1, 29: 1, 14: 1}","[14, 29, 59]",141291591,Pr1Cu1Si1
NdCuSi,mp-8120,0.0,5.51889467,0.0,icsd-30762,"{60: 1, 29: 1, 14: 1}","[14, 29, 60]",141291601,Nd1Cu1Si1
SmCuSi,mp-8121,0.0,5.3785474,0.0,icsd-30763,"{62: 1, 29: 1, 14: 1}","[14, 29, 62]",141291621,Sm1Cu1Si1
GdCuSi,mp-607182,0.0,5.49525344,0.0,icsd-30764,"{64: 1, 29: 1, 14: 1}","[14, 29, 64]",141291641,Gd1Cu1Si1
TbCuSi,mp-5514,0.0,5.73960764,0.0,icsd-629188,"{65: 1, 29: 1, 14: 1}","[14, 29, 65]",141291651,Tb1Cu1Si1
DyCuSi,mp-5365,0.0,5.76147882,0.0,icsd-61481,"{66: 1, 29: 1, 14: 1}","[14, 29, 66]",141291661,Dy1Cu1Si1
HoCuSi,mp-4476,0.0,5.75501693,0.0,icsd-30767,"{67: 1, 29: 1, 14: 1}","[14, 29, 67]",141291671,Ho1Cu1Si1
ErCuSi,mp-8122,0.0,5.81906765,0.0,icsd-30768,"{68: 1, 29: 1, 14: 1}","[14, 29, 68]",141291681,Er1Cu1Si1
TmCuSi,mp-8123,0.0,5.84138622,0.0,icsd-30769,"{69: 1, 29: 1, 14: 1}","[14, 29, 69]",141291691,Tm1Cu1Si1
LuCuSi,mp-8125,0.0,5.90391909,0.0,icsd-30771,"{71: 1, 29: 1, 14: 1}","[14, 29, 71]",141291711,Lu1Cu1Si1
HfCuSi,mp-22489,0.0,7.37998569,0.0,icsd-87199,"{72: 1, 29: 1, 14: 1}","[14, 29, 72]",141291721,Hf1Cu1Si1
ZnCu2SiTe4,mp-1078498,0.1589999999999998,4.88942131,0.0,icsd-656150,"{30: 1, 29: 2, 14: 1, 52: 4}","[14, 29, 30, 52]",141292301524,Zn1Cu2Si1Te4
Cu2SiSe3,mp-15896,0.2386999999999997,4.35708324,0.0,icsd-88236,"{29: 2, 14: 1, 34: 3}","[14, 29, 34]",141292343,Cu2Si1Se3
CdCu2SiSe4,mp-1189879,0.33999999999999986,3.33230674,0.0,icsd-619783,"{48: 1, 29: 2, 14: 1, 34: 4}","[14, 29, 34, 48]",141292344481,Cd1Cu2Si1Se4
Cu2SiHgSe4,mp-1212937,0.016100000000000225,3.32948281,0.0,icsd-627935,"{29: 2, 14: 1, 80: 1, 34: 4}","[14, 29, 34, 80]",141292344801,Cu2Si1Hg1Se4
CdCu2SiTe4,mp-1087540,0.2999999999999998,4.52128708,0.0,icsd-656151,"{48: 1, 29: 2, 14: 1, 52: 4}","[14, 29, 48, 52]",141292481524,Cd1Cu2Si1Te4
Cu2SiHgTe4,mp-1080131,0.0,4.44950479,0.0,icsd-656152,"{29: 2, 14: 1, 80: 1, 52: 4}","[14, 29, 52, 80]",141292524801,Cu2Si1Hg1Te4
ZnSiAs2,mp-3595,0.8866,3.55741743,0.0,icsd-191070,"{30: 1, 14: 1, 33: 2}","[14, 30, 33]",141301332,Zn1Si1As2
SrZnSi,mp-9556,0.0,3.66077743,0.0,icsd-86388,"{38: 1, 30: 1, 14: 1}","[14, 30, 38]",141301381,Sr1Zn1Si1
BaZnSi,mp-31147,0.0,3.29060256,0.0,icsd-106316,"{56: 1, 30: 1, 14: 1}","[14, 30, 56]",141301561,Ba1Zn1Si1
EuZnSi,mp-21234,0.0,3.80990709,0.0,icsd-106634,"{63: 1, 30: 1, 14: 1}","[14, 30, 63]",141301631,Eu1Zn1Si1
Zr6Zn23Si,mp-1207426,0.0,3.89496073,0.0,pf-8119,"{40: 6, 30: 23, 14: 1}","[14, 30, 40]",1413023406,Zr6Zn23Si1
NbSiAs,mp-21907,0.0,7.69099816,0.0,icsd-16320,"{41: 1, 14: 1, 33: 1}","[14, 33, 41]",141331411,Nb1Si1As1
TaSiAs,mp-5031,0.0,8.05618878,0.0,icsd-42355,"{73: 1, 14: 1, 33: 1}","[14, 33, 73]",141331731,Ta1Si1As1
SiAs2,mp-978553,0.8890999999999996,3.90331174,0.0,icsd-611405,"{14: 1, 33: 2}","[14, 33]",141332,Si1As2
Rb2SiAs2,mp-6960,0.9554999999999998,2.18882499,0.0,icsd-60617,"{37: 2, 14: 1, 33: 2}","[14, 33, 37]",141332372,Rb2Si1As2
CdSiAs2,mp-3078,0.4001999999999999,3.06561178,0.0,icsd-609979,"{48: 1, 14: 1, 33: 2}","[14, 33, 48]",141332481,Cd1Si1As2
Cs2SiAs2,mp-573721,1.0347,2.77797397,0.0,icsd-71225,"{55: 2, 14: 1, 33: 2}","[14, 33, 55]",141332552,Cs2Si1As2
Rb5SiAs3,mp-17490,0.3756999999999999,1.76508853,0.0,icsd-300191,"{37: 5, 14: 1, 33: 3}","[14, 33, 37]",141333375,Rb5Si1As3
Cs5SiAs3,mp-616140,0.6071999999999997,2.82762907,0.0,icsd-65716,"{55: 5, 14: 1, 33: 3}","[14, 33, 55]",141333555,Cs5Si1As3
Sr4SiAs4,mp-1196120,1.1494999999999997,2.92714578,0.0,icsd-611409,"{38: 4, 14: 1, 33: 4}","[14, 33, 38]",141334384,Sr4Si1As4
Ba4SiAs4,mp-14001,0.9863,2.52425273,0.0,icsd-26467,"{56: 4, 14: 1, 33: 4}","[14, 33, 56]",141334564,Ba4Si1As4
Ba4SiSb2Se11,mp-1196887,0.8874,3.00002276,0.0,icsd-165197,"{56: 4, 14: 1, 51: 2, 34: 11}","[14, 34, 51, 56]",1413411512564,Ba4Si1Sb2Se11
ZrSiSe,mp-4628,0.0,6.55261372,0.0,icsd-15571,"{40: 1, 14: 1, 34: 1}","[14, 34, 40]",141341401,Zr1Si1Se1
HfSiSe,mp-13962,0.0,6.98460327,0.0,icsd-25736,"{72: 1, 14: 1, 34: 1}","[14, 34, 72]",141341721,Hf1Si1Se1
SiPtSe,mp-1103261,0.7878999999999996,6.14700685,0.0,icsd-649595,"{14: 1, 78: 1, 34: 1}","[14, 34, 78]",141341781,Si1Pt1Se1
ThSiSe,mp-1076936,0.0,6.78054454,0.0,icsd-651864,"{90: 1, 14: 1, 34: 1}","[14, 34, 90]",141341901,Th1Si1Se1
Tl2SiSe3,mp-14241,1.6827999999999999,2.42833289,0.0,icsd-35042,"{81: 2, 14: 1, 34: 3}","[14, 34, 81]",141343812,Tl2Si1Se3
CsCeSiSe4,mp-573969,0.2913000000000001,3.5039947,0.0,icsd-415083,"{55: 1, 58: 1, 14: 1, 34: 4}","[14, 34, 55, 58]",141344551581,Cs1Ce1Si1Se4
Cs2SiSe4,mp-637251,1.9385000000000003,0.85687395,0.0,icsd-409815,"{55: 2, 14: 1, 34: 4}","[14, 34, 55]",141344552,Cs2Si1Se4
Cs4SiSe4,mp-29834,2.2150999999999996,0.93656231,0.0,icsd-409480,"{55: 4, 14: 1, 34: 4}","[14, 34, 55]",141344554,Cs4Si1Se4
Ba2SiSe4,mp-14447,2.2783999999999995,1.94380418,0.0,icsd-49750,"{56: 2, 14: 1, 34: 4}","[14, 34, 56]",141344562,Ba2Si1Se4
Tl4SiSe4,mp-28334,1.5277000000000003,2.83467945,0.0,icsd-59171,"{81: 4, 14: 1, 34: 4}","[14, 34, 81]",141344814,Tl4Si1Se4
Si(PbSe2)2,mp-27532,1.8131000000000004,2.49932984,0.0,icsd-16318,"{14: 1, 82: 2, 34: 4}","[14, 34, 82]",141344822,Si1Pb2Se4
La3SiAgSe7,mp-6485,1.6531000000000002,4.69568614,0.0,icsd-605509,"{57: 3, 14: 1, 47: 1, 34: 7}","[14, 34, 47, 57]",141347471573,La3Si1Ag1Se7
Ce3SiAgSe7,mp-18071,0.0,5.56090766,0.0,icsd-604962,"{58: 3, 14: 1, 47: 1, 34: 7}","[14, 34, 47, 58]",141347471583,Ce3Si1Ag1Se7
Pr3SiAgSe7,mp-17389,1.4423000000000004,3.38166338,0.0,icsd-605685,"{59: 3, 14: 1, 47: 1, 34: 7}","[14, 34, 47, 59]",141347471593,Pr3Si1Ag1Se7
Nd3SiAgSe7,mp-17827,1.4465,3.40623488,0.0,icsd-418055,"{60: 3, 14: 1, 47: 1, 34: 7}","[14, 34, 47, 60]",141347471603,Nd3Si1Ag1Se7
SiBr3,mp-1078181,3.8434,-1.32503561,0.0,icsd-239354,"{14: 1, 35: 3}","[14, 35]",141353,Si1Br3
La3SiBr3,mp-29995,0.0,5.79770809,0.0,icsd-411800,"{57: 3, 14: 1, 35: 3}","[14, 35, 57]",141353573,La3Si1Br3
Gd3SiBr3,mp-1212738,0.0,3.89520187,0.0,pf-13593,"{64: 3, 14: 1, 35: 3}","[14, 35, 64]",141353643,Gd3Si1Br3
Tb3SiBr3,mp-30232,0.0,4.24094043,0.0,icsd-409655,"{65: 3, 14: 1, 35: 3}","[14, 35, 65]",141353653,Tb3Si1Br3
SiBr4,mp-570285,4.1057,-2.64325844,0.0,icsd-710060,"{14: 1, 35: 4}","[14, 35]",141354,Si1Br4
Tb4SiBr6,mp-30283,0.0,2.35499955,0.0,icsd-409703,"{65: 4, 14: 1, 35: 6}","[14, 35, 65]",141356654,Tb4Si1Br6
RbSi,mp-1074,1.3487999999999998,1.79153401,0.0,icsd-409853,"{37: 1, 14: 1}","[14, 37]",141371,Rb1Si1
SrSi,mp-2661,0.0,4.12475233,0.0,icsd-78997,"{38: 1, 14: 1}","[14, 38]",141381,Sr1Si1
SrSiPd,mp-8843,0.0,4.38274317,0.0,icsd-69791,"{38: 1, 14: 1, 46: 1}","[14, 38, 46]",141381461,Sr1Si1Pd1
SrSiPt,mp-971914,0.0,5.07837957,0.0,icsd-604437,"{38: 1, 14: 1, 78: 1}","[14, 38, 78]",141381781,Sr1Si1Pt1
Sr2Si,mp-1106,0.3433999999999999,2.80569404,0.0,icsd-90771,"{38: 2, 14: 1}","[14, 38]",141382,Sr2Si1
YSi,mp-9972,0.0,5.55288982,0.0,icsd-652567,"{39: 1, 14: 1}","[14, 39]",141391,Y1Si1
YSiRu,mp-21069,0.0,6.30225552,0.0,icsd-88063,"{39: 1, 14: 1, 44: 1}","[14, 39, 44]",141391441,Y1Si1Ru1
YSiRh,mp-19728,0.0,6.16013391,0.0,icsd-32562,"{39: 1, 14: 1, 45: 1}","[14, 39, 45]",141391451,Y1Si1Rh1
YSiRh2,mp-28352,0.0,6.59827936,0.0,icsd-61381,"{39: 1, 14: 1, 45: 2}","[14, 39, 45]",141391452,Y1Si1Rh2
YSiPd,mp-505467,0.0,5.86463676,0.0,icsd-408080,"{39: 1, 14: 1, 46: 1}","[14, 39, 46]",141391461,Y1Si1Pd1
YSiPd2,mp-28024,0.0,5.70516438,0.0,icsd-35087,"{39: 1, 14: 1, 46: 2}","[14, 39, 46]",141391462,Y1Si1Pd2
YSiAg,mp-1091398,0.0,5.10489461,0.0,icsd-605850,"{39: 1, 14: 1, 47: 1}","[14, 39, 47]",141391471,Y1Si1Ag1
YSiIr,mp-1102268,0.0,6.91418064,0.0,icsd-427253,"{39: 1, 14: 1, 77: 1}","[14, 39, 77]",141391771,Y1Si1Ir1
YSiPt,mp-1103176,0.0,6.59120838,0.0,icsd-649647,"{39: 1, 14: 1, 78: 1}","[14, 39, 78]",141391781,Y1Si1Pt1
YSiPt2,mp-1188158,0.0,6.98501257,0.0,icsd-649645,"{39: 1, 14: 1, 78: 2}","[14, 39, 78]",141391782,Y1Si1Pt2
YSiAu,mp-9025,0.0,6.00084638,0.0,icsd-72000,"{39: 1, 14: 1, 79: 1}","[14, 39, 79]",141391791,Y1Si1Au1
ZrSi,mp-11322,0.0,7.03939761,0.0,icsd-652617,"{40: 1, 14: 1}","[14, 40]",141401,Zr1Si1
ZrSiMo,mp-1102520,0.0,7.28296912,0.0,icsd-644448,"{40: 1, 14: 1, 42: 1}","[14, 40, 42]",141401421,Zr1Si1Mo1
ZrSiRu,mp-7544,0.0,7.14693476,0.0,icsd-600432,"{40: 1, 14: 1, 44: 1}","[14, 40, 44]",141401441,Zr1Si1Ru1
ZrSiPd,mp-1103414,0.0,6.44805704,0.0,icsd-648895,"{40: 1, 14: 1, 46: 1}","[14, 40, 46]",141401461,Zr1Si1Pd1